REMARK  6 active torsions:
REMARK  status: ('A' for Active; 'I' for Inactive)
REMARK    1  A    between atoms: C_4  and  C_7 
REMARK    2  A    between atoms: C_7  and  C_8 
REMARK    3  A    between atoms: C_8  and  N_14 
REMARK    4  A    between atoms: C_11  and  N_15 
REMARK    5  A    between atoms: N_15  and  C_16 
REMARK       I    between atoms: N_15  and  C_24 
REMARK    6  A    between atoms: C_23  and  C_24 
ROOT
HETATM    1  C   UNL     1       0.838   5.823   0.501  1.00  0.00     0.274 C 
HETATM    2  C   UNL     1       1.710   7.037   0.174  1.00  0.00     0.056 C 
HETATM    3  C   UNL     1       1.426   7.554  -1.247  1.00  0.00     0.096 C 
HETATM    4  C   UNL     1       1.565   6.394  -2.245  1.00  0.00     0.056 C 
HETATM    5  C   UNL     1       0.696   5.207  -1.820  1.00  0.00     0.274 C 
HETATM    6  N   UNL     1       1.027   4.757  -0.474  1.00  0.00     0.088 N 
ENDROOT
BRANCH   3   7
HETATM    7  N   UNL     1       2.223   8.740  -1.613  1.00  0.00    -0.313 N 
HETATM    8  C   UNL     1       1.743  10.043  -1.621  1.00  0.00     0.224 C 
HETATM    9  O   UNL     1       2.465  10.977  -1.927  1.00  0.00    -0.273 OA
BRANCH   7  10
HETATM   10  C   UNL     1       3.620   8.574  -1.924  1.00  0.00     0.037 A 
HETATM   11  C   UNL     1       4.030   8.401  -3.252  1.00  0.00     0.030 A 
HETATM   12  C   UNL     1       5.383   8.235  -3.558  1.00  0.00     0.002 A 
HETATM   13  C   UNL     1       6.340   8.247  -2.537  1.00  0.00     0.000 A 
HETATM   14  C   UNL     1       5.937   8.434  -1.212  1.00  0.00     0.002 A 
HETATM   15  C   UNL     1       4.583   8.601  -0.906  1.00  0.00     0.030 A 
ENDBRANCH   7  10
BRANCH   8  16
HETATM   16  C   UNL     1       0.273  10.296  -1.281  1.00  0.00     0.099 C 
HETATM   17  C   UNL     1      -0.638  10.196  -2.515  1.00  0.00     0.014 C 
ENDBRANCH   8  16
ENDBRANCH   3   7
BRANCH   6  18
HETATM   18  C   UNL     1       0.383   3.504  -0.093  1.00  0.00     0.277 C 
BRANCH  18  19
HETATM   19  C   UNL     1       1.021   2.282  -0.760  1.00  0.00     0.068 C 
BRANCH  19  20
HETATM   20  C   UNL     1       0.477   0.925  -0.349  1.00  0.00    -0.057 A 
HETATM   21  C   UNL     1      -0.546   0.754   0.596  1.00  0.00     0.007 A 
HETATM   22  C   UNL     1      -1.004  -0.524   0.942  1.00  0.00     0.001 A 
HETATM   23  C   UNL     1      -0.446  -1.658   0.350  1.00  0.00     0.000 A 
HETATM   24  C   UNL     1       0.575  -1.505  -0.595  1.00  0.00     0.001 A 
HETATM   25  C   UNL     1       1.027  -0.230  -0.938  1.00  0.00     0.007 A 
ENDBRANCH  19  20
ENDBRANCH  18  19
ENDBRANCH   6  18
TORSDOF 6
