REMARK  7 active torsions:
REMARK  status: ('A' for Active; 'I' for Inactive)
REMARK    1  A    between atoms: C_4  and  C_7 
REMARK    2  A    between atoms: C_7  and  C_8 
REMARK    3  A    between atoms: C_8  and  N_14 
REMARK    4  A    between atoms: C_11  and  N_15 
REMARK    5  A    between atoms: N_15  and  C_16 
REMARK       I    between atoms: N_15  and  C_24 
REMARK    6  A    between atoms: C_19  and  N_28 
REMARK    7  A    between atoms: C_23  and  C_24 
ROOT
HETATM    1  C   UNL     1       1.022   5.782   0.512  1.00  0.00     0.274 C 
HETATM    2  C   UNL     1       1.877   6.991   0.125  1.00  0.00     0.056 C 
HETATM    3  C   UNL     1       1.440   7.564  -1.233  1.00  0.00     0.096 C 
HETATM    4  C   UNL     1       1.435   6.438  -2.279  1.00  0.00     0.056 C 
HETATM    5  C   UNL     1       0.597   5.251  -1.796  1.00  0.00     0.274 C 
HETATM    6  N   UNL     1       1.070   4.747  -0.512  1.00  0.00     0.088 N 
ENDROOT
BRANCH   3   7
HETATM    7  N   UNL     1       2.217   8.746  -1.648  1.00  0.00    -0.313 N 
HETATM    8  C   UNL     1       1.724  10.044  -1.677  1.00  0.00     0.224 C 
HETATM    9  O   UNL     1       2.422  10.977  -2.036  1.00  0.00    -0.273 OA
BRANCH   7  10
HETATM   10  C   UNL     1       3.601   8.574  -2.007  1.00  0.00     0.037 A 
HETATM   11  C   UNL     1       3.975   8.334  -3.336  1.00  0.00     0.032 A 
HETATM   12  C   UNL     1       5.312   8.169  -3.690  1.00  0.00     0.031 A 
HETATM   13  C   UNL     1       6.331   8.250  -2.718  1.00  0.00     0.025 A 
HETATM   14  C   UNL     1       5.953   8.508  -1.385  1.00  0.00     0.031 A 
HETATM   15  C   UNL     1       4.613   8.671  -1.042  1.00  0.00     0.032 A 
BRANCH  13  16
HETATM   16  N   UNL     1       7.667   8.134  -3.073  1.00  0.00    -0.399 N 
HETATM   17  H   UNL     1       8.319   7.904  -2.333  1.00  0.00     0.156 HD
HETATM   18  H   UNL     1       7.869   7.668  -3.949  1.00  0.00     0.156 HD
ENDBRANCH  13  16
ENDBRANCH   7  10
BRANCH   8  19
HETATM   19  C   UNL     1       0.264  10.297  -1.288  1.00  0.00     0.099 C 
HETATM   20  C   UNL     1      -0.702  10.111  -2.467  1.00  0.00     0.014 C 
ENDBRANCH   8  19
ENDBRANCH   3   7
BRANCH   6  21
HETATM   21  C   UNL     1       0.437   3.500  -0.097  1.00  0.00     0.277 C 
BRANCH  21  22
HETATM   22  C   UNL     1       0.944   2.285  -0.877  1.00  0.00     0.068 C 
BRANCH  22  23
HETATM   23  C   UNL     1       0.434   0.928  -0.424  1.00  0.00    -0.057 A 
HETATM   24  C   UNL     1      -0.517   0.760   0.595  1.00  0.00     0.007 A 
HETATM   25  C   UNL     1      -0.952  -0.517   0.974  1.00  0.00     0.001 A 
HETATM   26  C   UNL     1      -0.444  -1.653   0.341  1.00  0.00     0.000 A 
HETATM   27  C   UNL     1       0.505  -1.502  -0.677  1.00  0.00     0.001 A 
HETATM   28  C   UNL     1       0.935  -0.229  -1.051  1.00  0.00     0.007 A 
ENDBRANCH  22  23
ENDBRANCH  21  22
ENDBRANCH   6  21
TORSDOF 7
