REMARK  7 active torsions:
REMARK  status: ('A' for Active; 'I' for Inactive)
REMARK    1  A    between atoms: C_4  and  C_7 
REMARK    2  A    between atoms: C_7  and  C_8 
REMARK    3  A    between atoms: C_8  and  N_14 
REMARK    4  A    between atoms: C_11  and  N_15 
REMARK    5  A    between atoms: N_15  and  C_16 
REMARK       I    between atoms: N_15  and  C_24 
REMARK    6  A    between atoms: C_19  and  O_26 
REMARK    7  A    between atoms: C_23  and  C_24 
ROOT
HETATM    1  C   UNL     1       0.960   5.794   0.526  1.00  0.00     0.274 C 
HETATM    2  C   UNL     1       1.821   7.004   0.156  1.00  0.00     0.056 C 
HETATM    3  C   UNL     1       1.418   7.569  -1.216  1.00  0.00     0.096 C 
HETATM    4  C   UNL     1       1.444   6.439  -2.257  1.00  0.00     0.056 C 
HETATM    5  C   UNL     1       0.597   5.251  -1.791  1.00  0.00     0.274 C 
HETATM    6  N   UNL     1       1.039   4.755  -0.493  1.00  0.00     0.088 N 
ENDROOT
BRANCH   3   7
HETATM    7  N   UNL     1       2.201   8.752  -1.616  1.00  0.00    -0.313 N 
HETATM    8  C   UNL     1       1.705  10.048  -1.677  1.00  0.00     0.224 C 
HETATM    9  O   UNL     1       2.414  10.978  -2.023  1.00  0.00    -0.273 OA
BRANCH   7  10
HETATM   10  C   UNL     1       3.598   8.588  -1.927  1.00  0.00     0.037 A 
HETATM   11  C   UNL     1       4.013   8.342  -3.240  1.00  0.00     0.032 A 
HETATM   12  C   UNL     1       5.367   8.187  -3.546  1.00  0.00     0.039 A 
HETATM   13  C   UNL     1       6.333   8.285  -2.534  1.00  0.00     0.065 A 
HETATM   14  C   UNL     1       5.926   8.545  -1.217  1.00  0.00     0.039 A 
HETATM   15  C   UNL     1       4.573   8.699  -0.924  1.00  0.00     0.032 A 
BRANCH  13  16
HETATM   16  O   UNL     1       7.663   8.143  -2.772  1.00  0.00    -0.361 OA
HETATM   17  H   UNL     1       7.808   7.990  -3.715  1.00  0.00     0.217 HD
ENDBRANCH  13  16
ENDBRANCH   7  10
BRANCH   8  18
HETATM   18  C   UNL     1       0.232  10.300  -1.342  1.00  0.00     0.099 C 
HETATM   19  C   UNL     1      -0.693  10.090  -2.550  1.00  0.00     0.014 C 
ENDBRANCH   8  18
ENDBRANCH   3   7
BRANCH   6  20
HETATM   20  C   UNL     1       0.408   3.503  -0.093  1.00  0.00     0.277 C 
BRANCH  20  21
HETATM   21  C   UNL     1       0.969   2.290  -0.840  1.00  0.00     0.068 C 
BRANCH  21  22
HETATM   22  C   UNL     1       0.458   0.928  -0.403  1.00  0.00    -0.057 A 
HETATM   23  C   UNL     1      -0.543   0.752   0.565  1.00  0.00     0.007 A 
HETATM   24  C   UNL     1      -0.976  -0.530   0.930  1.00  0.00     0.001 A 
HETATM   25  C   UNL     1      -0.417  -1.661   0.335  1.00  0.00     0.000 A 
HETATM   26  C   UNL     1       0.583  -1.502  -0.633  1.00  0.00     0.001 A 
HETATM   27  C   UNL     1       1.011  -0.224  -0.994  1.00  0.00     0.007 A 
ENDBRANCH  21  22
ENDBRANCH  20  21
ENDBRANCH   6  20
TORSDOF 7
