MODEL 1
REMARK minimizedAffinity -9.37123775
REMARK minimizedRMSD -1
REMARK  6 active torsions:
REMARK  status: ('A' for Active; 'I' for Inactive)
REMARK    1  A    between atoms: C_4  and  C_7 
REMARK    2  A    between atoms: C_7  and  C_8 
REMARK    3  A    between atoms: C_8  and  N_14 
REMARK    4  A    between atoms: C_11  and  N_15 
REMARK    5  A    between atoms: N_15  and  C_16 
REMARK       I    between atoms: N_15  and  C_24 
REMARK    6  A    between atoms: C_23  and  C_24 
ROOT
HETATM    1  C   UNL     1     103.889 103.131 128.752  1.00  0.00     0.274 C 
HETATM    2  C   UNL     1     105.049 103.085 127.756  1.00  0.00     0.056 C 
HETATM    3  C   UNL     1     106.062 104.209 128.036  1.00  0.00     0.096 C 
HETATM    4  C   UNL     1     105.324 105.556 128.079  1.00  0.00     0.056 C 
HETATM    5  C   UNL     1     104.153 105.501 129.065  1.00  0.00     0.274 C 
HETATM    6  N   UNL     1     103.225 104.427 128.734  1.00  0.00     0.088 N 
ENDROOT
BRANCH   3   7
HETATM    7  N   UNL     1     107.217 104.203 127.119  1.00  0.00    -0.313 N 
HETATM    8  C   UNL     1     108.435 103.593 127.387  1.00  0.00     0.224 C 
HETATM    9  O   UNL     1     109.345 103.622 126.575  1.00  0.00    -0.273 OA
BRANCH   7  10
HETATM   10  C   UNL     1     107.080 104.808 125.819  1.00  0.00     0.037 A 
HETATM   11  C   UNL     1     107.705 106.030 125.541  1.00  0.00     0.030 A 
HETATM   12  C   UNL     1     107.571 106.623 124.283  1.00  0.00     0.002 A 
HETATM   13  C   UNL     1     106.814 105.993 123.288  1.00  0.00     0.000 A 
HETATM   14  C   UNL     1     106.201 104.767 123.556  1.00  0.00     0.002 A 
HETATM   15  C   UNL     1     106.336 104.173 124.815  1.00  0.00     0.030 A 
ENDBRANCH   7  10
BRANCH   8  16
HETATM   16  C   UNL     1     108.645 102.914 128.741  1.00  0.00     0.099 C 
HETATM   17  C   UNL     1     110.043 102.287 128.871  1.00  0.00     0.014 C 
ENDBRANCH   8  16
ENDBRANCH   3   7
BRANCH   6  18
HETATM   18  C   UNL     1     101.987 104.455 129.506  1.00  0.00     0.277 C 
BRANCH  18  19
HETATM   19  C   UNL     1     102.165 103.922 130.931  1.00  0.00     0.068 C 
BRANCH  19  20
HETATM   20  C   UNL     1     102.153 104.952 132.046  1.00  0.00    -0.057 A 
HETATM   21  C   UNL     1     101.960 104.629 133.398  1.00  0.00     0.007 A 
HETATM   22  C   UNL     1     101.951 105.624 134.384  1.00  0.00     0.001 A 
HETATM   23  C   UNL     1     102.135 106.963 134.038  1.00  0.00     0.000 A 
HETATM   24  C   UNL     1     102.330 107.302 132.694  1.00  0.00     0.001 A 
HETATM   25  C   UNL     1     102.339 106.308 131.715  1.00  0.00     0.007 A 
ENDBRANCH  19  20
ENDBRANCH  18  19
ENDBRANCH   6  18
TORSDOF 6
ENDMDL
MODEL 2
REMARK minimizedAffinity -9.12725925
REMARK minimizedRMSD -1
REMARK  6 active torsions:
REMARK  status: ('A' for Active; 'I' for Inactive)
REMARK    1  A    between atoms: C_4  and  C_7 
REMARK    2  A    between atoms: C_7  and  C_8 
REMARK    3  A    between atoms: C_8  and  N_14 
REMARK    4  A    between atoms: C_11  and  N_15 
REMARK    5  A    between atoms: N_15  and  C_16 
REMARK       I    between atoms: N_15  and  C_24 
REMARK    6  A    between atoms: C_23  and  C_24 
ROOT
HETATM    1  C   UNL     1     104.991 103.416 128.397  1.00  0.00     0.274 C 
HETATM    2  C   UNL     1     103.698 103.610 129.191  1.00  0.00     0.056 C 
HETATM    3  C   UNL     1     103.204 105.064 129.095  1.00  0.00     0.096 C 
HETATM    4  C   UNL     1     104.341 106.013 129.506  1.00  0.00     0.056 C 
HETATM    5  C   UNL     1     105.608 105.722 128.696  1.00  0.00     0.274 C 
HETATM    6  N   UNL     1     106.030 104.335 128.843  1.00  0.00     0.088 N 
ENDROOT
BRANCH   3   7
HETATM    7  N   UNL     1     101.946 105.309 129.825  1.00  0.00    -0.313 N 
HETATM    8  C   UNL     1     100.692 105.391 129.233  1.00  0.00     0.224 C 
HETATM    9  O   UNL     1      99.692 105.587 129.903  1.00  0.00    -0.273 OA
BRANCH   7  10
HETATM   10  C   UNL     1     101.979 105.406 131.262  1.00  0.00     0.037 A 
HETATM   11  C   UNL     1     101.793 104.263 132.050  1.00  0.00     0.030 A 
HETATM   12  C   UNL     1     101.820 104.353 133.443  1.00  0.00     0.002 A 
HETATM   13  C   UNL     1     102.039 105.589 134.063  1.00  0.00     0.000 A 
HETATM   14  C   UNL     1     102.240 106.729 133.281  1.00  0.00     0.002 A 
HETATM   15  C   UNL     1     102.214 106.639 131.886  1.00  0.00     0.030 A 
ENDBRANCH   7  10
BRANCH   8  16
HETATM   16  C   UNL     1     100.579 105.277 127.712  1.00  0.00     0.099 C 
HETATM   17  C   UNL     1     100.290 103.838 127.254  1.00  0.00     0.014 C 
ENDBRANCH   8  16
ENDBRANCH   3   7
BRANCH   6  18
HETATM   18  C   UNL     1     107.340 104.050 128.268  1.00  0.00     0.277 C 
BRANCH  18  19
HETATM   19  C   UNL     1     107.254 103.472 126.852  1.00  0.00     0.068 C 
BRANCH  19  20
HETATM   20  C   UNL     1     107.223 104.475 125.713  1.00  0.00    -0.057 A 
HETATM   21  C   UNL     1     108.010 105.636 125.680  1.00  0.00     0.007 A 
HETATM   22  C   UNL     1     107.935 106.531 124.605  1.00  0.00     0.001 A 
HETATM   23  C   UNL     1     107.068 106.282 123.539  1.00  0.00     0.000 A 
HETATM   24  C   UNL     1     106.276 105.129 123.556  1.00  0.00     0.001 A 
HETATM   25  C   UNL     1     106.356 104.239 124.628  1.00  0.00     0.007 A 
ENDBRANCH  19  20
ENDBRANCH  18  19
ENDBRANCH   6  18
TORSDOF 6
ENDMDL
MODEL 3
REMARK minimizedAffinity -9.09077072
REMARK minimizedRMSD -1
REMARK  6 active torsions:
REMARK  status: ('A' for Active; 'I' for Inactive)
REMARK    1  A    between atoms: C_4  and  C_7 
REMARK    2  A    between atoms: C_7  and  C_8 
REMARK    3  A    between atoms: C_8  and  N_14 
REMARK    4  A    between atoms: C_11  and  N_15 
REMARK    5  A    between atoms: N_15  and  C_16 
REMARK       I    between atoms: N_15  and  C_24 
REMARK    6  A    between atoms: C_23  and  C_24 
ROOT
HETATM    1  C   UNL     1     104.854 105.476 127.480  1.00  0.00     0.274 C 
HETATM    2  C   UNL     1     103.562 105.893 128.187  1.00  0.00     0.056 C 
HETATM    3  C   UNL     1     103.069 104.786 129.134  1.00  0.00     0.096 C 
HETATM    4  C   UNL     1     102.960 103.466 128.357  1.00  0.00     0.056 C 
HETATM    5  C   UNL     1     104.278 103.146 127.645  1.00  0.00     0.274 C 
HETATM    6  N   UNL     1     104.679 104.226 126.752  1.00  0.00     0.088 N 
ENDROOT
BRANCH   3   7
HETATM    7  N   UNL     1     101.836 105.140 129.863  1.00  0.00    -0.313 N 
HETATM    8  C   UNL     1     100.570 105.193 129.295  1.00  0.00     0.224 C 
HETATM    9  O   UNL     1      99.593 105.486 129.963  1.00  0.00    -0.273 OA
BRANCH   7  10
HETATM   10  C   UNL     1     101.909 105.388 131.280  1.00  0.00     0.037 A 
HETATM   11  C   UNL     1     101.693 104.344 132.189  1.00  0.00     0.030 A 
HETATM   12  C   UNL     1     101.758 104.580 133.565  1.00  0.00     0.002 A 
HETATM   13  C   UNL     1     102.046 105.863 134.044  1.00  0.00     0.000 A 
HETATM   14  C   UNL     1     102.276 106.905 133.140  1.00  0.00     0.002 A 
HETATM   15  C   UNL     1     102.212 106.668 131.764  1.00  0.00     0.030 A 
ENDBRANCH   7  10
BRANCH   8  16
HETATM   16  C   UNL     1     100.415 104.922 127.797  1.00  0.00     0.099 C 
HETATM   17  C   UNL     1      99.990 106.176 127.016  1.00  0.00     0.014 C 
ENDBRANCH   8  16
ENDBRANCH   3   7
BRANCH   6  18
HETATM   18  C   UNL     1     105.810 103.894 125.892  1.00  0.00     0.277 C 
BRANCH  18  19
HETATM   19  C   UNL     1     107.112 104.565 126.340  1.00  0.00     0.068 C 
BRANCH  19  20
HETATM   20  C   UNL     1     108.004 103.760 127.269  1.00  0.00    -0.057 A 
HETATM   21  C   UNL     1     107.597 103.307 128.533  1.00  0.00     0.007 A 
HETATM   22  C   UNL     1     108.466 102.574 129.352  1.00  0.00     0.001 A 
HETATM   23  C   UNL     1     109.761 102.279 128.922  1.00  0.00     0.000 A 
HETATM   24  C   UNL     1     110.182 102.723 127.664  1.00  0.00     0.001 A 
HETATM   25  C   UNL     1     109.313 103.452 126.851  1.00  0.00     0.007 A 
ENDBRANCH  19  20
ENDBRANCH  18  19
ENDBRANCH   6  18
TORSDOF 6
ENDMDL
MODEL 4
REMARK minimizedAffinity -8.62115574
REMARK minimizedRMSD -1
REMARK  6 active torsions:
REMARK  status: ('A' for Active; 'I' for Inactive)
REMARK    1  A    between atoms: C_4  and  C_7 
REMARK    2  A    between atoms: C_7  and  C_8 
REMARK    3  A    between atoms: C_8  and  N_14 
REMARK    4  A    between atoms: C_11  and  N_15 
REMARK    5  A    between atoms: N_15  and  C_16 
REMARK       I    between atoms: N_15  and  C_24 
REMARK    6  A    between atoms: C_23  and  C_24 
ROOT
HETATM    1  C   UNL     1     118.947 115.807 129.592  1.00  0.00     0.274 C 
HETATM    2  C   UNL     1     120.214 115.636 128.750  1.00  0.00     0.056 C 
HETATM    3  C   UNL     1     120.903 116.990 128.510  1.00  0.00     0.096 C 
HETATM    4  C   UNL     1     119.886 117.978 127.919  1.00  0.00     0.056 C 
HETATM    5  C   UNL     1     118.633 118.055 128.797  1.00  0.00     0.274 C 
HETATM    6  N   UNL     1     118.021 116.744 128.971  1.00  0.00     0.088 N 
ENDROOT
BRANCH   3   7
HETATM    7  N   UNL     1     122.145 116.887 127.721  1.00  0.00    -0.313 N 
HETATM    8  C   UNL     1     123.266 117.686 127.903  1.00  0.00     0.224 C 
HETATM    9  O   UNL     1     124.263 117.537 127.217  1.00  0.00    -0.273 OA
BRANCH   7  10
HETATM   10  C   UNL     1     122.258 115.849 126.728  1.00  0.00     0.037 A 
HETATM   11  C   UNL     1     122.855 114.625 127.054  1.00  0.00     0.030 A 
HETATM   12  C   UNL     1     122.971 113.617 126.094  1.00  0.00     0.002 A 
HETATM   13  C   UNL     1     122.484 113.823 124.798  1.00  0.00     0.000 A 
HETATM   14  C   UNL     1     121.875 115.038 124.472  1.00  0.00     0.002 A 
HETATM   15  C   UNL     1     121.758 116.046 125.434  1.00  0.00     0.030 A 
ENDBRANCH   7  10
BRANCH   8  16
HETATM   16  C   UNL     1     123.224 118.797 128.955  1.00  0.00     0.099 C 
HETATM   17  C   UNL     1     124.534 118.894 129.754  1.00  0.00     0.014 C 
ENDBRANCH   8  16
ENDBRANCH   3   7
BRANCH   6  18
HETATM   18  C   UNL     1     116.714 116.782 129.619  1.00  0.00     0.277 C 
BRANCH  18  19
HETATM   19  C   UNL     1     116.329 115.443 130.255  1.00  0.00     0.068 C 
BRANCH  19  20
HETATM   20  C   UNL     1     115.425 114.540 129.435  1.00  0.00    -0.057 A 
HETATM   21  C   UNL     1     114.248 113.961 129.935  1.00  0.00     0.007 A 
HETATM   22  C   UNL     1     113.456 113.128 129.134  1.00  0.00     0.001 A 
HETATM   23  C   UNL     1     113.825 112.857 127.816  1.00  0.00     0.000 A 
HETATM   24  C   UNL     1     114.995 113.427 127.302  1.00  0.00     0.001 A 
HETATM   25  C   UNL     1     115.781 114.257 128.102  1.00  0.00     0.007 A 
ENDBRANCH  19  20
ENDBRANCH  18  19
ENDBRANCH   6  18
TORSDOF 6
ENDMDL
MODEL 5
REMARK minimizedAffinity -8.40543175
REMARK minimizedRMSD -1
REMARK  6 active torsions:
REMARK  status: ('A' for Active; 'I' for Inactive)
REMARK    1  A    between atoms: C_4  and  C_7 
REMARK    2  A    between atoms: C_7  and  C_8 
REMARK    3  A    between atoms: C_8  and  N_14 
REMARK    4  A    between atoms: C_11  and  N_15 
REMARK    5  A    between atoms: N_15  and  C_16 
REMARK       I    between atoms: N_15  and  C_24 
REMARK    6  A    between atoms: C_23  and  C_24 
ROOT
HETATM    1  C   UNL     1     105.872 105.506 128.385  1.00  0.00     0.274 C 
HETATM    2  C   UNL     1     104.457 105.895 128.820  1.00  0.00     0.056 C 
HETATM    3  C   UNL     1     103.925 104.929 129.893  1.00  0.00     0.096 C 
HETATM    4  C   UNL     1     104.050 103.486 129.382  1.00  0.00     0.056 C 
HETATM    5  C   UNL     1     105.483 103.195 128.928  1.00  0.00     0.274 C 
HETATM    6  N   UNL     1     105.919 104.133 127.901  1.00  0.00     0.088 N 
ENDROOT
BRANCH   3   7
HETATM    7  N   UNL     1     102.570 105.267 130.368  1.00  0.00    -0.313 N 
HETATM    8  C   UNL     1     101.418 105.184 129.597  1.00  0.00     0.224 C 
HETATM    9  O   UNL     1     100.328 105.471 130.062  1.00  0.00    -0.273 OA
BRANCH   7  10
HETATM   10  C   UNL     1     102.388 105.647 131.746  1.00  0.00     0.037 A 
HETATM   11  C   UNL     1     102.080 104.679 132.710  1.00  0.00     0.030 A 
HETATM   12  C   UNL     1     101.898 105.044 134.046  1.00  0.00     0.002 A 
HETATM   13  C   UNL     1     102.028 106.383 134.431  1.00  0.00     0.000 A 
HETATM   14  C   UNL     1     102.350 107.351 133.476  1.00  0.00     0.002 A 
HETATM   15  C   UNL     1     102.533 106.985 132.139  1.00  0.00     0.030 A 
ENDBRANCH   7  10
BRANCH   8  16
HETATM   16  C   UNL     1     101.534 104.766 128.130  1.00  0.00     0.099 C 
HETATM   17  C   UNL     1     100.213 104.211 127.574  1.00  0.00     0.014 C 
ENDBRANCH   8  16
ENDBRANCH   3   7
BRANCH   6  18
HETATM   18  C   UNL     1     107.192 103.782 127.280  1.00  0.00     0.277 C 
BRANCH  18  19
HETATM   19  C   UNL     1     107.742 104.895 126.383  1.00  0.00     0.068 C 
BRANCH  19  20
HETATM   20  C   UNL     1     107.072 105.069 125.031  1.00  0.00    -0.057 A 
HETATM   21  C   UNL     1     106.147 104.157 124.502  1.00  0.00     0.007 A 
HETATM   22  C   UNL     1     105.564 104.365 123.245  1.00  0.00     0.001 A 
HETATM   23  C   UNL     1     105.898 105.491 122.491  1.00  0.00     0.000 A 
HETATM   24  C   UNL     1     106.818 106.412 123.004  1.00  0.00     0.001 A 
HETATM   25  C   UNL     1     107.394 106.201 124.258  1.00  0.00     0.007 A 
ENDBRANCH  19  20
ENDBRANCH  18  19
ENDBRANCH   6  18
TORSDOF 6
ENDMDL
MODEL 6
REMARK minimizedAffinity -8.21568298
REMARK minimizedRMSD -1
REMARK  6 active torsions:
REMARK  status: ('A' for Active; 'I' for Inactive)
REMARK    1  A    between atoms: C_4  and  C_7 
REMARK    2  A    between atoms: C_7  and  C_8 
REMARK    3  A    between atoms: C_8  and  N_14 
REMARK    4  A    between atoms: C_11  and  N_15 
REMARK    5  A    between atoms: N_15  and  C_16 
REMARK       I    between atoms: N_15  and  C_24 
REMARK    6  A    between atoms: C_23  and  C_24 
ROOT
HETATM    1  C   UNL     1     103.548 102.676 127.292  1.00  0.00     0.274 C 
HETATM    2  C   UNL     1     104.182 102.810 128.678  1.00  0.00     0.056 C 
HETATM    3  C   UNL     1     103.863 104.180 129.301  1.00  0.00     0.096 C 
HETATM    4  C   UNL     1     104.265 105.290 128.317  1.00  0.00     0.056 C 
HETATM    5  C   UNL     1     103.624 105.056 126.946  1.00  0.00     0.274 C 
HETATM    6  N   UNL     1     103.979 103.749 126.406  1.00  0.00     0.088 N 
ENDROOT
BRANCH   3   7
HETATM    7  N   UNL     1     104.432 104.360 130.651  1.00  0.00    -0.313 N 
HETATM    8  C   UNL     1     105.783 104.274 130.957  1.00  0.00     0.224 C 
HETATM    9  O   UNL     1     106.181 104.445 132.097  1.00  0.00    -0.273 OA
BRANCH   7  10
HETATM   10  C   UNL     1     103.554 104.719 131.736  1.00  0.00     0.037 A 
HETATM   11  C   UNL     1     102.967 103.721 132.525  1.00  0.00     0.030 A 
HETATM   12  C   UNL     1     102.112 104.064 133.575  1.00  0.00     0.002 A 
HETATM   13  C   UNL     1     101.841 105.409 133.850  1.00  0.00     0.000 A 
HETATM   14  C   UNL     1     102.436 106.408 133.075  1.00  0.00     0.002 A 
HETATM   15  C   UNL     1     103.293 106.065 132.024  1.00  0.00     0.030 A 
ENDBRANCH   7  10
BRANCH   8  16
HETATM   16  C   UNL     1     106.776 103.918 129.849  1.00  0.00     0.099 C 
HETATM   17  C   UNL     1     107.552 102.626 130.152  1.00  0.00     0.014 C 
ENDBRANCH   8  16
ENDBRANCH   3   7
BRANCH   6  18
HETATM   18  C   UNL     1     103.573 103.552 125.018  1.00  0.00     0.277 C 
BRANCH  18  19
HETATM   19  C   UNL     1     104.762 103.496 124.055  1.00  0.00     0.068 C 
BRANCH  19  20
HETATM   20  C   UNL     1     105.933 104.411 124.370  1.00  0.00    -0.057 A 
HETATM   21  C   UNL     1     106.793 104.219 125.461  1.00  0.00     0.007 A 
HETATM   22  C   UNL     1     107.855 105.100 125.708  1.00  0.00     0.001 A 
HETATM   23  C   UNL     1     108.075 106.192 124.867  1.00  0.00     0.000 A 
HETATM   24  C   UNL     1     107.226 106.397 123.773  1.00  0.00     0.001 A 
HETATM   25  C   UNL     1     106.171 105.516 123.531  1.00  0.00     0.007 A 
ENDBRANCH  19  20
ENDBRANCH  18  19
ENDBRANCH   6  18
TORSDOF 6
ENDMDL
MODEL 7
REMARK minimizedAffinity -8.20693493
REMARK minimizedRMSD -1
REMARK  6 active torsions:
REMARK  status: ('A' for Active; 'I' for Inactive)
REMARK    1  A    between atoms: C_4  and  C_7 
REMARK    2  A    between atoms: C_7  and  C_8 
REMARK    3  A    between atoms: C_8  and  N_14 
REMARK    4  A    between atoms: C_11  and  N_15 
REMARK    5  A    between atoms: N_15  and  C_16 
REMARK       I    between atoms: N_15  and  C_24 
REMARK    6  A    between atoms: C_23  and  C_24 
ROOT
HETATM    1  C   UNL     1     115.299 113.558 124.203  1.00  0.00     0.274 C 
HETATM    2  C   UNL     1     114.607 113.628 122.840  1.00  0.00     0.056 C 
HETATM    3  C   UNL     1     113.635 114.819 122.775  1.00  0.00     0.096 C 
HETATM    4  C   UNL     1     112.668 114.749 123.967  1.00  0.00     0.056 C 
HETATM    5  C   UNL     1     113.440 114.635 125.285  1.00  0.00     0.274 C 
HETATM    6  N   UNL     1     114.328 113.480 125.286  1.00  0.00     0.088 N 
ENDROOT
BRANCH   3   7
HETATM    7  N   UNL     1     112.952 114.952 121.474  1.00  0.00    -0.313 N 
HETATM    8  C   UNL     1     112.800 116.146 120.780  1.00  0.00     0.224 C 
HETATM    9  O   UNL     1     112.230 116.178 119.703  1.00  0.00    -0.273 OA
BRANCH   7  10
HETATM   10  C   UNL     1     112.457 113.768 120.821  1.00  0.00     0.037 A 
HETATM   11  C   UNL     1     111.162 113.305 121.088  1.00  0.00     0.030 A 
HETATM   12  C   UNL     1     110.679 112.154 120.461  1.00  0.00     0.002 A 
HETATM   13  C   UNL     1     111.486 111.459 119.553  1.00  0.00     0.000 A 
HETATM   14  C   UNL     1     112.773 111.925 119.272  1.00  0.00     0.002 A 
HETATM   15  C   UNL     1     113.256 113.077 119.900  1.00  0.00     0.030 A 
ENDBRANCH   7  10
BRANCH   8  16
HETATM   16  C   UNL     1     113.321 117.441 121.406  1.00  0.00     0.099 C 
HETATM   17  C   UNL     1     114.725 117.811 120.901  1.00  0.00     0.014 C 
ENDBRANCH   8  16
ENDBRANCH   3   7
BRANCH   6  18
HETATM   18  C   UNL     1     114.932 113.198 126.585  1.00  0.00     0.277 C 
BRANCH  18  19
HETATM   19  C   UNL     1     113.895 112.866 127.662  1.00  0.00     0.068 C 
BRANCH  19  20
HETATM   20  C   UNL     1     113.869 113.774 128.879  1.00  0.00    -0.057 A 
HETATM   21  C   UNL     1     112.686 114.222 129.486  1.00  0.00     0.007 A 
HETATM   22  C   UNL     1     112.722 115.065 130.605  1.00  0.00     0.001 A 
HETATM   23  C   UNL     1     113.944 115.479 131.138  1.00  0.00     0.000 A 
HETATM   24  C   UNL     1     115.133 115.040 130.544  1.00  0.00     0.001 A 
HETATM   25  C   UNL     1     115.093 114.199 129.432  1.00  0.00     0.007 A 
ENDBRANCH  19  20
ENDBRANCH  18  19
ENDBRANCH   6  18
TORSDOF 6
ENDMDL
MODEL 8
REMARK minimizedAffinity -8.20169163
REMARK minimizedRMSD -1
REMARK  6 active torsions:
REMARK  status: ('A' for Active; 'I' for Inactive)
REMARK    1  A    between atoms: C_4  and  C_7 
REMARK    2  A    between atoms: C_7  and  C_8 
REMARK    3  A    between atoms: C_8  and  N_14 
REMARK    4  A    between atoms: C_11  and  N_15 
REMARK    5  A    between atoms: N_15  and  C_16 
REMARK       I    between atoms: N_15  and  C_24 
REMARK    6  A    between atoms: C_23  and  C_24 
ROOT
HETATM    1  C   UNL     1     102.787 105.567 127.240  1.00  0.00     0.274 C 
HETATM    2  C   UNL     1     103.432 105.738 128.616  1.00  0.00     0.056 C 
HETATM    3  C   UNL     1     103.652 104.375 129.296  1.00  0.00     0.096 C 
HETATM    4  C   UNL     1     102.326 103.599 129.316  1.00  0.00     0.056 C 
HETATM    5  C   UNL     1     101.728 103.514 127.909  1.00  0.00     0.274 C 
HETATM    6  N   UNL     1     101.530 104.837 127.331  1.00  0.00     0.088 N 
ENDROOT
BRANCH   3   7
HETATM    7  N   UNL     1     104.293 104.473 130.621  1.00  0.00    -0.313 N 
HETATM    8  C   UNL     1     105.649 104.290 130.858  1.00  0.00     0.224 C 
HETATM    9  O   UNL     1     106.110 104.397 131.982  1.00  0.00    -0.273 OA
BRANCH   7  10
HETATM   10  C   UNL     1     103.493 104.851 131.757  1.00  0.00     0.037 A 
HETATM   11  C   UNL     1     103.168 106.196 131.975  1.00  0.00     0.030 A 
HETATM   12  C   UNL     1     102.396 106.567 133.078  1.00  0.00     0.002 A 
HETATM   13  C   UNL     1     101.936 105.594 133.972  1.00  0.00     0.000 A 
HETATM   14  C   UNL     1     102.245 104.249 133.751  1.00  0.00     0.002 A 
HETATM   15  C   UNL     1     103.017 103.878 132.646  1.00  0.00     0.030 A 
ENDBRANCH   7  10
BRANCH   8  16
HETATM   16  C   UNL     1     106.563 103.907 129.693  1.00  0.00     0.099 C 
HETATM   17  C   UNL     1     107.418 102.668 130.003  1.00  0.00     0.014 C 
ENDBRANCH   8  16
ENDBRANCH   3   7
BRANCH   6  18
HETATM   18  C   UNL     1     100.772 104.831 126.083  1.00  0.00     0.277 C 
BRANCH  18  19
HETATM   19  C   UNL     1     100.369 106.236 125.628  1.00  0.00     0.068 C 
BRANCH  19  20
HETATM   20  C   UNL     1     100.796 106.643 124.228  1.00  0.00    -0.057 A 
HETATM   21  C   UNL     1     100.577 107.921 123.692  1.00  0.00     0.007 A 
HETATM   22  C   UNL     1     100.987 108.239 122.391  1.00  0.00     0.001 A 
HETATM   23  C   UNL     1     101.623 107.283 121.598  1.00  0.00     0.000 A 
HETATM   24  C   UNL     1     101.850 106.003 122.118  1.00  0.00     0.001 A 
HETATM   25  C   UNL     1     101.441 105.691 123.415  1.00  0.00     0.007 A 
ENDBRANCH  19  20
ENDBRANCH  18  19
ENDBRANCH   6  18
TORSDOF 6
ENDMDL
MODEL 9
REMARK minimizedAffinity -8.1720295
REMARK minimizedRMSD -1
REMARK  6 active torsions:
REMARK  status: ('A' for Active; 'I' for Inactive)
REMARK    1  A    between atoms: C_4  and  C_7 
REMARK    2  A    between atoms: C_7  and  C_8 
REMARK    3  A    between atoms: C_8  and  N_14 
REMARK    4  A    between atoms: C_11  and  N_15 
REMARK    5  A    between atoms: N_15  and  C_16 
REMARK       I    between atoms: N_15  and  C_24 
REMARK    6  A    between atoms: C_23  and  C_24 
ROOT
HETATM    1  C   UNL     1     117.368 117.034 128.393  1.00  0.00     0.274 C 
HETATM    2  C   UNL     1     118.538 117.200 127.421  1.00  0.00     0.056 C 
HETATM    3  C   UNL     1     119.520 116.021 127.533  1.00  0.00     0.096 C 
HETATM    4  C   UNL     1     119.943 115.852 129.001  1.00  0.00     0.056 C 
HETATM    5  C   UNL     1     118.714 115.739 129.908  1.00  0.00     0.274 C 
HETATM    6  N   UNL     1     117.836 116.893 129.765  1.00  0.00     0.088 N 
ENDROOT
BRANCH   3   7
HETATM    7  N   UNL     1     120.661 116.113 126.603  1.00  0.00    -0.313 N 
HETATM    8  C   UNL     1     120.707 115.522 125.347  1.00  0.00     0.224 C 
HETATM    9  O   UNL     1     121.683 115.649 124.627  1.00  0.00    -0.273 OA
BRANCH   7  10
HETATM   10  C   UNL     1     121.796 116.923 126.967  1.00  0.00     0.037 A 
HETATM   11  C   UNL     1     122.991 116.318 127.376  1.00  0.00     0.030 A 
HETATM   12  C   UNL     1     124.092 117.099 127.735  1.00  0.00     0.002 A 
HETATM   13  C   UNL     1     124.010 118.495 127.680  1.00  0.00     0.000 A 
HETATM   14  C   UNL     1     122.824 119.103 127.258  1.00  0.00     0.002 A 
HETATM   15  C   UNL     1     121.722 118.321 126.899  1.00  0.00     0.030 A 
ENDBRANCH   7  10
BRANCH   8  16
HETATM   16  C   UNL     1     119.527 114.663 124.886  1.00  0.00     0.099 C 
HETATM   17  C   UNL     1     119.982 113.371 124.189  1.00  0.00     0.014 C 
ENDBRANCH   8  16
ENDBRANCH   3   7
BRANCH   6  18
HETATM   18  C   UNL     1     116.761 116.945 130.751  1.00  0.00     0.277 C 
BRANCH  18  19
HETATM   19  C   UNL     1     116.293 115.555 131.193  1.00  0.00     0.068 C 
BRANCH  19  20
HETATM   20  C   UNL     1     115.070 114.997 130.487  1.00  0.00    -0.057 A 
HETATM   21  C   UNL     1     115.139 114.137 129.380  1.00  0.00     0.007 A 
HETATM   22  C   UNL     1     113.976 113.658 128.763  1.00  0.00     0.001 A 
HETATM   23  C   UNL     1     112.718 114.030 129.242  1.00  0.00     0.000 A 
HETATM   24  C   UNL     1     112.632 114.886 130.346  1.00  0.00     0.001 A 
HETATM   25  C   UNL     1     113.793 115.360 130.958  1.00  0.00     0.007 A 
ENDBRANCH  19  20
ENDBRANCH  18  19
ENDBRANCH   6  18
TORSDOF 6
ENDMDL
