MODEL 1
REMARK minimizedAffinity -9.40929985
REMARK minimizedRMSD -1
REMARK  7 active torsions:
REMARK  status: ('A' for Active; 'I' for Inactive)
REMARK    1  A    between atoms: C_4  and  C_7 
REMARK    2  A    between atoms: C_7  and  C_8 
REMARK    3  A    between atoms: C_8  and  N_14 
REMARK    4  A    between atoms: C_11  and  N_15 
REMARK    5  A    between atoms: N_15  and  C_16 
REMARK       I    between atoms: N_15  and  C_24 
REMARK    6  A    between atoms: C_19  and  O_26 
REMARK    7  A    between atoms: C_23  and  C_24 
ROOT
HETATM    1  C   UNL     1     103.882 103.226 128.925  1.00  0.00     0.274 C 
HETATM    2  C   UNL     1     105.030 103.120 127.918  1.00  0.00     0.056 C 
HETATM    3  C   UNL     1     106.019 104.286 128.084  1.00  0.00     0.096 C 
HETATM    4  C   UNL     1     105.250 105.615 128.023  1.00  0.00     0.056 C 
HETATM    5  C   UNL     1     104.094 105.621 129.028  1.00  0.00     0.274 C 
HETATM    6  N   UNL     1     103.187 104.501 128.807  1.00  0.00     0.088 N 
ENDROOT
BRANCH   3   7
HETATM    7  N   UNL     1     107.159 104.225 127.152  1.00  0.00    -0.313 N 
HETATM    8  C   UNL     1     108.374 103.611 127.425  1.00  0.00     0.224 C 
HETATM    9  O   UNL     1     109.276 103.605 126.603  1.00  0.00    -0.273 OA
BRANCH   7  10
HETATM   10  C   UNL     1     107.013 104.797 125.838  1.00  0.00     0.037 A 
HETATM   11  C   UNL     1     107.631 106.009 125.514  1.00  0.00     0.032 A 
HETATM   12  C   UNL     1     107.496 106.564 124.239  1.00  0.00     0.039 A 
HETATM   13  C   UNL     1     106.740 105.902 123.260  1.00  0.00     0.065 A 
HETATM   14  C   UNL     1     106.129 104.679 123.573  1.00  0.00     0.039 A 
HETATM   15  C   UNL     1     106.271 104.135 124.847  1.00  0.00     0.032 A 
BRANCH  13  16
HETATM   16  O   UNL     1     106.573 106.394 122.005  1.00  0.00    -0.361 OA
HETATM   17  H   UNL     1     107.060 107.224 121.915  1.00  0.00     0.217 HD
ENDBRANCH  13  16
ENDBRANCH   7  10
BRANCH   8  18
HETATM   18  C   UNL     1     108.594 102.966 128.797  1.00  0.00     0.099 C 
HETATM   19  C   UNL     1     109.936 102.226 128.894  1.00  0.00     0.014 C 
ENDBRANCH   8  18
ENDBRANCH   3   7
BRANCH   6  20
HETATM   20  C   UNL     1     101.962 104.568 129.595  1.00  0.00     0.277 C 
BRANCH  20  21
HETATM   21  C   UNL     1     102.140 104.023 131.015  1.00  0.00     0.068 C 
BRANCH  21  22
HETATM   22  C   UNL     1     102.136 105.045 132.139  1.00  0.00    -0.057 A 
HETATM   23  C   UNL     1     101.943 104.710 133.488  1.00  0.00     0.007 A 
HETATM   24  C   UNL     1     101.949 105.695 134.484  1.00  0.00     0.001 A 
HETATM   25  C   UNL     1     102.147 107.035 134.152  1.00  0.00     0.000 A 
HETATM   26  C   UNL     1     102.342 107.386 132.810  1.00  0.00     0.001 A 
HETATM   27  C   UNL     1     102.336 106.402 131.821  1.00  0.00     0.007 A 
ENDBRANCH  21  22
ENDBRANCH  20  21
ENDBRANCH   6  20
TORSDOF 7
ENDMDL
MODEL 2
REMARK minimizedAffinity -9.02512169
REMARK minimizedRMSD -1
REMARK  7 active torsions:
REMARK  status: ('A' for Active; 'I' for Inactive)
REMARK    1  A    between atoms: C_4  and  C_7 
REMARK    2  A    between atoms: C_7  and  C_8 
REMARK    3  A    between atoms: C_8  and  N_14 
REMARK    4  A    between atoms: C_11  and  N_15 
REMARK    5  A    between atoms: N_15  and  C_16 
REMARK       I    between atoms: N_15  and  C_24 
REMARK    6  A    between atoms: C_19  and  O_26 
REMARK    7  A    between atoms: C_23  and  C_24 
ROOT
HETATM    1  C   UNL     1     104.995 103.378 128.447  1.00  0.00     0.274 C 
HETATM    2  C   UNL     1     103.689 103.580 129.219  1.00  0.00     0.056 C 
HETATM    3  C   UNL     1     103.166 105.016 129.053  1.00  0.00     0.096 C 
HETATM    4  C   UNL     1     104.278 106.008 129.430  1.00  0.00     0.056 C 
HETATM    5  C   UNL     1     105.561 105.709 128.648  1.00  0.00     0.274 C 
HETATM    6  N   UNL     1     106.010 104.338 128.861  1.00  0.00     0.088 N 
ENDROOT
BRANCH   3   7
HETATM    7  N   UNL     1     101.896 105.264 129.759  1.00  0.00    -0.313 N 
HETATM    8  C   UNL     1     100.644 105.278 129.158  1.00  0.00     0.224 C 
HETATM    9  O   UNL     1      99.636 105.496 129.808  1.00  0.00    -0.273 OA
BRANCH   7  10
HETATM   10  C   UNL     1     101.922 105.462 131.185  1.00  0.00     0.037 A 
HETATM   11  C   UNL     1     101.721 104.388 132.059  1.00  0.00     0.032 A 
HETATM   12  C   UNL     1     101.750 104.576 133.443  1.00  0.00     0.039 A 
HETATM   13  C   UNL     1     101.990 105.851 133.976  1.00  0.00     0.065 A 
HETATM   14  C   UNL     1     102.205 106.930 133.106  1.00  0.00     0.039 A 
HETATM   15  C   UNL     1     102.176 106.731 131.728  1.00  0.00     0.032 A 
BRANCH  13  16
HETATM   16  O   UNL     1     102.029 106.093 135.312  1.00  0.00    -0.361 OA
HETATM   17  H   UNL     1     101.887 105.268 135.794  1.00  0.00     0.217 HD
ENDBRANCH  13  16
ENDBRANCH   7  10
BRANCH   8  18
HETATM   18  C   UNL     1     100.539 105.057 127.646  1.00  0.00     0.099 C 
HETATM   19  C   UNL     1     100.321 106.364 126.871  1.00  0.00     0.014 C 
ENDBRANCH   8  18
ENDBRANCH   3   7
BRANCH   6  20
HETATM   20  C   UNL     1     107.331 104.057 128.310  1.00  0.00     0.277 C 
BRANCH  20  21
HETATM   21  C   UNL     1     107.271 103.439 126.911  1.00  0.00     0.068 C 
BRANCH  21  22
HETATM   22  C   UNL     1     107.173 104.406 125.744  1.00  0.00    -0.057 A 
HETATM   23  C   UNL     1     106.341 104.197 124.634  1.00  0.00     0.007 A 
HETATM   24  C   UNL     1     106.291 105.125 123.585  1.00  0.00     0.001 A 
HETATM   25  C   UNL     1     107.072 106.280 123.625  1.00  0.00     0.000 A 
HETATM   26  C   UNL     1     107.908 106.504 124.726  1.00  0.00     0.001 A 
HETATM   27  C   UNL     1     107.955 105.578 125.769  1.00  0.00     0.007 A 
ENDBRANCH  21  22
ENDBRANCH  20  21
ENDBRANCH   6  20
TORSDOF 7
ENDMDL
MODEL 3
REMARK minimizedAffinity -8.98988724
REMARK minimizedRMSD -1
REMARK  7 active torsions:
REMARK  status: ('A' for Active; 'I' for Inactive)
REMARK    1  A    between atoms: C_4  and  C_7 
REMARK    2  A    between atoms: C_7  and  C_8 
REMARK    3  A    between atoms: C_8  and  N_14 
REMARK    4  A    between atoms: C_11  and  N_15 
REMARK    5  A    between atoms: N_15  and  C_16 
REMARK       I    between atoms: N_15  and  C_24 
REMARK    6  A    between atoms: C_19  and  O_26 
REMARK    7  A    between atoms: C_23  and  C_24 
ROOT
HETATM    1  C   UNL     1     104.863 105.413 127.415  1.00  0.00     0.274 C 
HETATM    2  C   UNL     1     103.557 105.831 128.096  1.00  0.00     0.056 C 
HETATM    3  C   UNL     1     103.065 104.739 129.060  1.00  0.00     0.096 C 
HETATM    4  C   UNL     1     102.980 103.400 128.310  1.00  0.00     0.056 C 
HETATM    5  C   UNL     1     104.310 103.079 127.620  1.00  0.00     0.274 C 
HETATM    6  N   UNL     1     104.713 104.146 126.711  1.00  0.00     0.088 N 
ENDROOT
BRANCH   3   7
HETATM    7  N   UNL     1     101.819 105.096 129.763  1.00  0.00    -0.313 N 
HETATM    8  C   UNL     1     100.567 105.178 129.167  1.00  0.00     0.224 C 
HETATM    9  O   UNL     1      99.580 105.485 129.814  1.00  0.00    -0.273 OA
BRANCH   7  10
HETATM   10  C   UNL     1     101.867 105.337 131.183  1.00  0.00     0.037 A 
HETATM   11  C   UNL     1     101.656 104.294 132.091  1.00  0.00     0.032 A 
HETATM   12  C   UNL     1     101.706 104.523 133.468  1.00  0.00     0.039 A 
HETATM   13  C   UNL     1     101.978 105.808 133.958  1.00  0.00     0.065 A 
HETATM   14  C   UNL     1     102.204 106.856 133.054  1.00  0.00     0.039 A 
HETATM   15  C   UNL     1     102.153 106.616 131.683  1.00  0.00     0.032 A 
BRANCH  13  16
HETATM   16  O   UNL     1     102.038 106.090 135.286  1.00  0.00    -0.361 OA
HETATM   17  H   UNL     1     101.886 105.283 135.795  1.00  0.00     0.217 HD
ENDBRANCH  13  16
ENDBRANCH   7  10
BRANCH   8  18
HETATM   18  C   UNL     1     100.438 104.916 127.663  1.00  0.00     0.099 C 
HETATM   19  C   UNL     1     100.136 106.194 126.865  1.00  0.00     0.014 C 
ENDBRANCH   8  18
ENDBRANCH   3   7
BRANCH   6  20
HETATM   20  C   UNL     1     105.859 103.808 125.876  1.00  0.00     0.277 C 
BRANCH  20  21
HETATM   21  C   UNL     1     107.147 104.502 126.327  1.00  0.00     0.068 C 
BRANCH  21  22
HETATM   22  C   UNL     1     108.036 103.728 127.285  1.00  0.00    -0.057 A 
HETATM   23  C   UNL     1     107.627 103.328 128.566  1.00  0.00     0.007 A 
HETATM   24  C   UNL     1     108.490 102.614 129.409  1.00  0.00     0.001 A 
HETATM   25  C   UNL     1     109.779 102.287 128.987  1.00  0.00     0.000 A 
HETATM   26  C   UNL     1     110.201 102.678 127.710  1.00  0.00     0.001 A 
HETATM   27  C   UNL     1     109.339 103.388 126.874  1.00  0.00     0.007 A 
ENDBRANCH  21  22
ENDBRANCH  20  21
ENDBRANCH   6  20
TORSDOF 7
ENDMDL
MODEL 4
REMARK minimizedAffinity -8.58350372
REMARK minimizedRMSD -1
REMARK  7 active torsions:
REMARK  status: ('A' for Active; 'I' for Inactive)
REMARK    1  A    between atoms: C_4  and  C_7 
REMARK    2  A    between atoms: C_7  and  C_8 
REMARK    3  A    between atoms: C_8  and  N_14 
REMARK    4  A    between atoms: C_11  and  N_15 
REMARK    5  A    between atoms: N_15  and  C_16 
REMARK       I    between atoms: N_15  and  C_24 
REMARK    6  A    between atoms: C_19  and  O_26 
REMARK    7  A    between atoms: C_23  and  C_24 
ROOT
HETATM    1  C   UNL     1     119.032 115.794 129.617  1.00  0.00     0.274 C 
HETATM    2  C   UNL     1     120.279 115.638 128.743  1.00  0.00     0.056 C 
HETATM    3  C   UNL     1     120.939 117.001 128.475  1.00  0.00     0.096 C 
HETATM    4  C   UNL     1     119.890 117.968 127.904  1.00  0.00     0.056 C 
HETATM    5  C   UNL     1     118.658 118.032 128.812  1.00  0.00     0.274 C 
HETATM    6  N   UNL     1     118.073 116.711 129.014  1.00  0.00     0.088 N 
ENDROOT
BRANCH   3   7
HETATM    7  N   UNL     1     122.160 116.910 127.654  1.00  0.00    -0.313 N 
HETATM    8  C   UNL     1     123.247 117.768 127.753  1.00  0.00     0.224 C 
HETATM    9  O   UNL     1     124.223 117.633 127.034  1.00  0.00    -0.273 OA
BRANCH   7  10
HETATM   10  C   UNL     1     122.280 115.833 126.704  1.00  0.00     0.037 A 
HETATM   11  C   UNL     1     121.757 115.959 125.413  1.00  0.00     0.032 A 
HETATM   12  C   UNL     1     121.875 114.919 124.488  1.00  0.00     0.039 A 
HETATM   13  C   UNL     1     122.532 113.732 124.844  1.00  0.00     0.065 A 
HETATM   14  C   UNL     1     123.072 113.604 126.132  1.00  0.00     0.039 A 
HETATM   15  C   UNL     1     122.948 114.648 127.046  1.00  0.00     0.032 A 
BRANCH  13  16
HETATM   16  O   UNL     1     122.678 112.688 123.987  1.00  0.00    -0.361 OA
HETATM   17  H   UNL     1     122.284 112.913 123.134  1.00  0.00     0.217 HD
ENDBRANCH  13  16
ENDBRANCH   7  10
BRANCH   8  18
HETATM   18  C   UNL     1     123.197 118.925 128.755  1.00  0.00     0.099 C 
HETATM   19  C   UNL     1     124.399 118.932 129.710  1.00  0.00     0.014 C 
ENDBRANCH   8  18
ENDBRANCH   3   7
BRANCH   6  20
HETATM   20  C   UNL     1     116.786 116.734 129.698  1.00  0.00     0.277 C 
BRANCH  20  21
HETATM   21  C   UNL     1     116.401 115.373 130.285  1.00  0.00     0.068 C 
BRANCH  21  22
HETATM   22  C   UNL     1     115.476 114.509 129.446  1.00  0.00    -0.057 A 
HETATM   23  C   UNL     1     114.277 113.964 129.930  1.00  0.00     0.007 A 
HETATM   24  C   UNL     1     113.461 113.172 129.110  1.00  0.00     0.001 A 
HETATM   25  C   UNL     1     113.829 112.909 127.790  1.00  0.00     0.000 A 
HETATM   26  C   UNL     1     115.024 113.446 127.292  1.00  0.00     0.001 A 
HETATM   27  C   UNL     1     115.832 114.234 128.112  1.00  0.00     0.007 A 
ENDBRANCH  21  22
ENDBRANCH  20  21
ENDBRANCH   6  20
TORSDOF 7
ENDMDL
MODEL 5
REMARK minimizedAffinity -8.28171444
REMARK minimizedRMSD -1
REMARK  7 active torsions:
REMARK  status: ('A' for Active; 'I' for Inactive)
REMARK    1  A    between atoms: C_4  and  C_7 
REMARK    2  A    between atoms: C_7  and  C_8 
REMARK    3  A    between atoms: C_8  and  N_14 
REMARK    4  A    between atoms: C_11  and  N_15 
REMARK    5  A    between atoms: N_15  and  C_16 
REMARK       I    between atoms: N_15  and  C_24 
REMARK    6  A    between atoms: C_19  and  O_26 
REMARK    7  A    between atoms: C_23  and  C_24 
ROOT
HETATM    1  C   UNL     1     117.411 117.100 132.692  1.00  0.00     0.274 C 
HETATM    2  C   UNL     1     117.770 117.037 134.179  1.00  0.00     0.056 C 
HETATM    3  C   UNL     1     117.999 115.585 134.630  1.00  0.00     0.096 C 
HETATM    4  C   UNL     1     116.778 114.735 134.243  1.00  0.00     0.056 C 
HETATM    5  C   UNL     1     116.459 114.890 132.753  1.00  0.00     0.274 C 
HETATM    6  N   UNL     1     116.240 116.286 132.394  1.00  0.00     0.088 N 
ENDROOT
BRANCH   3   7
HETATM    7  N   UNL     1     118.369 115.464 136.052  1.00  0.00    -0.313 N 
HETATM    8  C   UNL     1     119.637 115.139 136.516  1.00  0.00     0.224 C 
HETATM    9  O   UNL     1     119.868 115.053 137.710  1.00  0.00    -0.273 OA
BRANCH   7  10
HETATM   10  C   UNL     1     117.374 115.743 137.055  1.00  0.00     0.037 A 
HETATM   11  C   UNL     1     116.636 114.707 137.637  1.00  0.00     0.032 A 
HETATM   12  C   UNL     1     115.674 114.974 138.613  1.00  0.00     0.039 A 
HETATM   13  C   UNL     1     115.441 116.292 139.031  1.00  0.00     0.065 A 
HETATM   14  C   UNL     1     116.186 117.336 138.462  1.00  0.00     0.039 A 
HETATM   15  C   UNL     1     117.144 117.058 137.490  1.00  0.00     0.032 A 
BRANCH  13  16
HETATM   16  O   UNL     1     114.519 116.611 139.976  1.00  0.00    -0.361 OA
HETATM   17  H   UNL     1     114.094 115.806 140.298  1.00  0.00     0.217 HD
ENDBRANCH  13  16
ENDBRANCH   7  10
BRANCH   8  18
HETATM   18  C   UNL     1     120.750 114.847 135.505  1.00  0.00     0.099 C 
HETATM   19  C   UNL     1     122.006 114.256 136.163  1.00  0.00     0.014 C 
ENDBRANCH   8  18
ENDBRANCH   3   7
BRANCH   6  20
HETATM   20  C   UNL     1     115.733 116.475 131.040  1.00  0.00     0.277 C 
BRANCH  20  21
HETATM   21  C   UNL     1     116.399 115.546 130.022  1.00  0.00     0.068 C 
BRANCH  21  22
HETATM   22  C   UNL     1     115.484 114.591 129.274  1.00  0.00    -0.057 A 
HETATM   23  C   UNL     1     114.316 114.046 129.830  1.00  0.00     0.007 A 
HETATM   24  C   UNL     1     113.509 113.168 129.094  1.00  0.00     0.001 A 
HETATM   25  C   UNL     1     113.853 112.818 127.788  1.00  0.00     0.000 A 
HETATM   26  C   UNL     1     115.015 113.354 127.219  1.00  0.00     0.001 A 
HETATM   27  C   UNL     1     115.816 114.228 127.955  1.00  0.00     0.007 A 
ENDBRANCH  21  22
ENDBRANCH  20  21
ENDBRANCH   6  20
TORSDOF 7
ENDMDL
MODEL 6
REMARK minimizedAffinity -8.08593559
REMARK minimizedRMSD -1
REMARK  7 active torsions:
REMARK  status: ('A' for Active; 'I' for Inactive)
REMARK    1  A    between atoms: C_4  and  C_7 
REMARK    2  A    between atoms: C_7  and  C_8 
REMARK    3  A    between atoms: C_8  and  N_14 
REMARK    4  A    between atoms: C_11  and  N_15 
REMARK    5  A    between atoms: N_15  and  C_16 
REMARK       I    between atoms: N_15  and  C_24 
REMARK    6  A    between atoms: C_19  and  O_26 
REMARK    7  A    between atoms: C_23  and  C_24 
ROOT
HETATM    1  C   UNL     1     105.916 105.447 128.897  1.00  0.00     0.274 C 
HETATM    2  C   UNL     1     104.440 105.810 128.713  1.00  0.00     0.056 C 
HETATM    3  C   UNL     1     103.530 104.800 129.430  1.00  0.00     0.096 C 
HETATM    4  C   UNL     1     103.889 103.378 128.970  1.00  0.00     0.056 C 
HETATM    5  C   UNL     1     105.387 103.112 129.145  1.00  0.00     0.274 C 
HETATM    6  N   UNL     1     106.193 104.095 128.430  1.00  0.00     0.088 N 
ENDROOT
BRANCH   3   7
HETATM    7  N   UNL     1     102.095 105.111 129.304  1.00  0.00    -0.313 N 
HETATM    8  C   UNL     1     101.206 105.200 130.368  1.00  0.00     0.224 C 
HETATM    9  O   UNL     1     100.028 105.457 130.185  1.00  0.00    -0.273 OA
BRANCH   7  10
HETATM   10  C   UNL     1     101.557 105.394 127.998  1.00  0.00     0.037 A 
HETATM   11  C   UNL     1     101.564 106.698 127.491  1.00  0.00     0.032 A 
HETATM   12  C   UNL     1     101.048 106.976 126.223  1.00  0.00     0.039 A 
HETATM   13  C   UNL     1     100.520 105.942 125.436  1.00  0.00     0.065 A 
HETATM   14  C   UNL     1     100.522 104.630 125.932  1.00  0.00     0.039 A 
HETATM   15  C   UNL     1     101.041 104.365 127.197  1.00  0.00     0.032 A 
BRANCH  13  16
HETATM   16  O   UNL     1     100.005 106.152 124.196  1.00  0.00    -0.361 OA
HETATM   17  H   UNL     1     100.083 107.088 123.968  1.00  0.00     0.217 HD
ENDBRANCH  13  16
ENDBRANCH   7  10
BRANCH   8  18
HETATM   18  C   UNL     1     101.712 104.929 131.788  1.00  0.00     0.099 C 
HETATM   19  C   UNL     1     102.145 106.210 132.515  1.00  0.00     0.014 C 
ENDBRANCH   8  18
ENDBRANCH   3   7
BRANCH   6  20
HETATM   20  C   UNL     1     107.615 103.776 128.390  1.00  0.00     0.277 C 
BRANCH  20  21
HETATM   21  C   UNL     1     108.114 103.468 126.976  1.00  0.00     0.068 C 
BRANCH  21  22
HETATM   22  C   UNL     1     107.650 104.403 125.873  1.00  0.00    -0.057 A 
HETATM   23  C   UNL     1     108.147 105.705 125.703  1.00  0.00     0.007 A 
HETATM   24  C   UNL     1     107.681 106.525 124.666  1.00  0.00     0.001 A 
HETATM   25  C   UNL     1     106.709 106.060 123.780  1.00  0.00     0.000 A 
HETATM   26  C   UNL     1     106.203 104.764 123.936  1.00  0.00     0.001 A 
HETATM   27  C   UNL     1     106.670 103.950 124.969  1.00  0.00     0.007 A 
ENDBRANCH  21  22
ENDBRANCH  20  21
ENDBRANCH   6  20
TORSDOF 7
ENDMDL
MODEL 7
REMARK minimizedAffinity -7.87570953
REMARK minimizedRMSD -1
REMARK  7 active torsions:
REMARK  status: ('A' for Active; 'I' for Inactive)
REMARK    1  A    between atoms: C_4  and  C_7 
REMARK    2  A    between atoms: C_7  and  C_8 
REMARK    3  A    between atoms: C_8  and  N_14 
REMARK    4  A    between atoms: C_11  and  N_15 
REMARK    5  A    between atoms: N_15  and  C_16 
REMARK       I    between atoms: N_15  and  C_24 
REMARK    6  A    between atoms: C_19  and  O_26 
REMARK    7  A    between atoms: C_23  and  C_24 
ROOT
HETATM    1  C   UNL     1     118.887 116.027 133.940  1.00  0.00     0.274 C 
HETATM    2  C   UNL     1     119.180 116.321 135.413  1.00  0.00     0.056 C 
HETATM    3  C   UNL     1     118.611 115.218 136.320  1.00  0.00     0.096 C 
HETATM    4  C   UNL     1     117.120 115.022 136.004  1.00  0.00     0.056 C 
HETATM    5  C   UNL     1     116.908 114.779 134.507  1.00  0.00     0.274 C 
HETATM    6  N   UNL     1     117.458 115.865 133.705  1.00  0.00     0.088 N 
ENDROOT
BRANCH   3   7
HETATM    7  N   UNL     1     118.883 115.438 137.752  1.00  0.00    -0.313 N 
HETATM    8  C   UNL     1     119.955 114.894 138.448  1.00  0.00     0.224 C 
HETATM    9  O   UNL     1     120.112 115.118 139.637  1.00  0.00    -0.273 OA
BRANCH   7  10
HETATM   10  C   UNL     1     118.015 116.313 138.497  1.00  0.00     0.037 A 
HETATM   11  C   UNL     1     116.950 115.798 139.243  1.00  0.00     0.032 A 
HETATM   12  C   UNL     1     116.109 116.643 139.970  1.00  0.00     0.039 A 
HETATM   13  C   UNL     1     116.331 118.028 139.968  1.00  0.00     0.065 A 
HETATM   14  C   UNL     1     117.405 118.552 139.234  1.00  0.00     0.039 A 
HETATM   15  C   UNL     1     118.237 117.699 138.513  1.00  0.00     0.032 A 
BRANCH  13  16
HETATM   16  O   UNL     1     115.547 118.898 140.656  1.00  0.00    -0.361 OA
HETATM   17  H   UNL     1     114.862 118.410 141.132  1.00  0.00     0.217 HD
ENDBRANCH  13  16
ENDBRANCH   7  10
BRANCH   8  18
HETATM   18  C   UNL     1     120.929 113.968 137.714  1.00  0.00     0.099 C 
HETATM   19  C   UNL     1     122.365 114.512 137.701  1.00  0.00     0.014 C 
ENDBRANCH   8  18
ENDBRANCH   3   7
BRANCH   6  20
HETATM   20  C   UNL     1     117.108 115.792 132.292  1.00  0.00     0.277 C 
BRANCH  20  21
HETATM   21  C   UNL     1     115.613 115.556 132.061  1.00  0.00     0.068 C 
BRANCH  21  22
HETATM   22  C   UNL     1     115.228 114.850 130.773  1.00  0.00    -0.057 A 
HETATM   23  C   UNL     1     114.069 114.070 130.635  1.00  0.00     0.007 A 
HETATM   24  C   UNL     1     113.763 113.440 129.421  1.00  0.00     0.001 A 
HETATM   25  C   UNL     1     114.610 113.578 128.321  1.00  0.00     0.000 A 
HETATM   26  C   UNL     1     115.770 114.353 128.442  1.00  0.00     0.001 A 
HETATM   27  C   UNL     1     116.071 114.979 129.653  1.00  0.00     0.007 A 
ENDBRANCH  21  22
ENDBRANCH  20  21
ENDBRANCH   6  20
TORSDOF 7
ENDMDL
MODEL 8
REMARK minimizedAffinity -7.85596848
REMARK minimizedRMSD -1
REMARK  7 active torsions:
REMARK  status: ('A' for Active; 'I' for Inactive)
REMARK    1  A    between atoms: C_4  and  C_7 
REMARK    2  A    between atoms: C_7  and  C_8 
REMARK    3  A    between atoms: C_8  and  N_14 
REMARK    4  A    between atoms: C_11  and  N_15 
REMARK    5  A    between atoms: N_15  and  C_16 
REMARK       I    between atoms: N_15  and  C_24 
REMARK    6  A    between atoms: C_19  and  O_26 
REMARK    7  A    between atoms: C_23  and  C_24 
ROOT
HETATM    1  C   UNL     1     102.281 105.860 127.150  1.00  0.00     0.274 C 
HETATM    2  C   UNL     1     103.091 105.905 128.448  1.00  0.00     0.056 C 
HETATM    3  C   UNL     1     103.245 104.499 129.051  1.00  0.00     0.096 C 
HETATM    4  C   UNL     1     101.857 103.856 129.200  1.00  0.00     0.056 C 
HETATM    5  C   UNL     1     101.096 103.892 127.871  1.00  0.00     0.274 C 
HETATM    6  N   UNL     1     100.973 105.253 127.361  1.00  0.00     0.088 N 
ENDROOT
BRANCH   3   7
HETATM    7  N   UNL     1     104.036 104.478 130.294  1.00  0.00    -0.313 N 
HETATM    8  C   UNL     1     105.388 104.166 130.369  1.00  0.00     0.224 C 
HETATM    9  O   UNL     1     105.976 104.165 131.437  1.00  0.00    -0.273 OA
BRANCH   7  10
HETATM   10  C   UNL     1     103.398 104.848 131.531  1.00  0.00     0.037 A 
HETATM   11  C   UNL     1     103.010 103.872 132.455  1.00  0.00     0.032 A 
HETATM   12  C   UNL     1     102.395 104.228 133.657  1.00  0.00     0.039 A 
HETATM   13  C   UNL     1     102.164 105.579 133.957  1.00  0.00     0.065 A 
HETATM   14  C   UNL     1     102.562 106.564 133.042  1.00  0.00     0.039 A 
HETATM   15  C   UNL     1     103.176 106.198 131.847  1.00  0.00     0.032 A 
BRANCH  13  16
HETATM   16  O   UNL     1     101.570 105.984 135.110  1.00  0.00    -0.361 OA
HETATM   17  H   UNL     1     101.367 105.214 135.657  1.00  0.00     0.217 HD
ENDBRANCH  13  16
ENDBRANCH   7  10
BRANCH   8  18
HETATM   18  C   UNL     1     106.137 103.780 129.090  1.00  0.00     0.099 C 
HETATM   19  C   UNL     1     107.470 103.074 129.376  1.00  0.00     0.014 C 
ENDBRANCH   8  18
ENDBRANCH   3   7
BRANCH   6  20
HETATM   20  C   UNL     1     100.086 105.375 126.211  1.00  0.00     0.277 C 
BRANCH  20  21
HETATM   21  C   UNL     1     100.047 106.794 125.639  1.00  0.00     0.068 C 
BRANCH  21  22
HETATM   22  C   UNL     1     100.584 106.973 124.229  1.00  0.00    -0.057 A 
HETATM   23  C   UNL     1     100.427 108.153 123.486  1.00  0.00     0.007 A 
HETATM   24  C   UNL     1     100.944 108.262 122.188  1.00  0.00     0.001 A 
HETATM   25  C   UNL     1     101.628 107.194 121.607  1.00  0.00     0.000 A 
HETATM   26  C   UNL     1     101.793 106.009 122.336  1.00  0.00     0.001 A 
HETATM   27  C   UNL     1     101.277 105.905 123.629  1.00  0.00     0.007 A 
ENDBRANCH  21  22
ENDBRANCH  20  21
ENDBRANCH   6  20
TORSDOF 7
ENDMDL
MODEL 9
REMARK minimizedAffinity -7.83299351
REMARK minimizedRMSD -1
REMARK  7 active torsions:
REMARK  status: ('A' for Active; 'I' for Inactive)
REMARK    1  A    between atoms: C_4  and  C_7 
REMARK    2  A    between atoms: C_7  and  C_8 
REMARK    3  A    between atoms: C_8  and  N_14 
REMARK    4  A    between atoms: C_11  and  N_15 
REMARK    5  A    between atoms: N_15  and  C_16 
REMARK       I    between atoms: N_15  and  C_24 
REMARK    6  A    between atoms: C_19  and  O_26 
REMARK    7  A    between atoms: C_23  and  C_24 
ROOT
HETATM    1  C   UNL     1     100.958 105.701 128.516  1.00  0.00     0.274 C 
HETATM    2  C   UNL     1     101.776 104.748 129.390  1.00  0.00     0.056 C 
HETATM    3  C   UNL     1     102.668 105.528 130.371  1.00  0.00     0.096 C 
HETATM    4  C   UNL     1     103.514 106.544 129.587  1.00  0.00     0.056 C 
HETATM    5  C   UNL     1     102.626 107.426 128.705  1.00  0.00     0.274 C 
HETATM    6  N   UNL     1     101.818 106.627 127.791  1.00  0.00     0.088 N 
ENDROOT
BRANCH   3   7
HETATM    7  N   UNL     1     103.465 104.660 131.256  1.00  0.00    -0.313 N 
HETATM    8  C   UNL     1     103.079 104.256 132.527  1.00  0.00     0.224 C 
HETATM    9  O   UNL     1     103.797 103.539 133.205  1.00  0.00    -0.273 OA
BRANCH   7  10
HETATM   10  C   UNL     1     104.719 104.140 130.774  1.00  0.00     0.037 A 
HETATM   11  C   UNL     1     104.768 103.347 129.623  1.00  0.00     0.032 A 
HETATM   12  C   UNL     1     105.983 102.845 129.150  1.00  0.00     0.039 A 
HETATM   13  C   UNL     1     107.177 103.140 129.825  1.00  0.00     0.065 A 
HETATM   14  C   UNL     1     107.138 103.946 130.972  1.00  0.00     0.039 A 
HETATM   15  C   UNL     1     105.920 104.442 131.433  1.00  0.00     0.032 A 
BRANCH  13  16
HETATM   16  O   UNL     1     108.387 102.680 129.412  1.00  0.00    -0.361 OA
HETATM   17  H   UNL     1     108.276 102.160 128.605  1.00  0.00     0.217 HD
ENDBRANCH  13  16
ENDBRANCH   7  10
BRANCH   8  18
HETATM   18  C   UNL     1     101.749 104.755 133.098  1.00  0.00     0.099 C 
HETATM   19  C   UNL     1     101.937 105.776 134.230  1.00  0.00     0.014 C 
ENDBRANCH   8  18
ENDBRANCH   3   7
BRANCH   6  20
HETATM   20  C   UNL     1     101.108 107.413 126.789  1.00  0.00     0.277 C 
BRANCH  20  21
HETATM   21  C   UNL     1     100.422 106.546 125.730  1.00  0.00     0.068 C 
BRANCH  21  22
HETATM   22  C   UNL     1     100.795 106.819 124.283  1.00  0.00    -0.057 A 
HETATM   23  C   UNL     1     100.465 108.006 123.611  1.00  0.00     0.007 A 
HETATM   24  C   UNL     1     100.835 108.205 122.274  1.00  0.00     0.001 A 
HETATM   25  C   UNL     1     101.542 107.221 121.583  1.00  0.00     0.000 A 
HETATM   26  C   UNL     1     101.879 106.031 122.240  1.00  0.00     0.001 A 
HETATM   27  C   UNL     1     101.510 105.837 123.571  1.00  0.00     0.007 A 
ENDBRANCH  21  22
ENDBRANCH  20  21
ENDBRANCH   6  20
TORSDOF 7
ENDMDL
