MODEL 1
REMARK minimizedAffinity -8.47412777
REMARK minimizedRMSD -1
REMARK  7 active torsions:
REMARK  status: ('A' for Active; 'I' for Inactive)
REMARK    1  A    between atoms: C_4  and  C_7 
REMARK    2  A    between atoms: C_7  and  C_8 
REMARK    3  A    between atoms: C_8  and  N_14 
REMARK    4  A    between atoms: C_11  and  N_15 
REMARK    5  A    between atoms: N_15  and  C_16 
REMARK       I    between atoms: N_15  and  C_24 
REMARK    6  A    between atoms: C_19  and  O_26 
REMARK    7  A    between atoms: C_23  and  C_24 
ROOT
HETATM    1  C   UNL     1     119.118 115.838 129.661  1.00  0.00     0.274 C 
HETATM    2  C   UNL     1     120.325 115.701 128.730  1.00  0.00     0.056 C 
HETATM    3  C   UNL     1     121.033 117.053 128.542  1.00  0.00     0.096 C 
HETATM    4  C   UNL     1     120.008 118.103 128.089  1.00  0.00     0.056 C 
HETATM    5  C   UNL     1     118.813 118.145 129.046  1.00  0.00     0.274 C 
HETATM    6  N   UNL     1     118.179 116.838 129.169  1.00  0.00     0.088 N 
ENDROOT
BRANCH   3   7
HETATM    7  N   UNL     1     122.219 116.977 127.669  1.00  0.00    -0.313 N 
HETATM    8  C   UNL     1     123.309 117.835 127.737  1.00  0.00     0.224 C 
HETATM    9  O   UNL     1     124.255 117.713 126.976  1.00  0.00    -0.273 OA
BRANCH   7  10
HETATM   10  C   UNL     1     122.300 115.917 126.697  1.00  0.00     0.037 A 
HETATM   11  C   UNL     1     121.754 116.077 125.419  1.00  0.00     0.032 A 
HETATM   12  C   UNL     1     121.835 115.053 124.473  1.00  0.00     0.039 A 
HETATM   13  C   UNL     1     122.476 113.847 124.793  1.00  0.00     0.065 A 
HETATM   14  C   UNL     1     123.038 113.684 126.068  1.00  0.00     0.039 A 
HETATM   15  C   UNL     1     122.952 114.713 127.003  1.00  0.00     0.032 A 
BRANCH  13  16
HETATM   16  O   UNL     1     122.585 112.817 123.914  1.00  0.00    -0.361 OA
HETATM   17  H   UNL     1     122.178 113.066 123.073  1.00  0.00     0.217 HD
ENDBRANCH  13  16
ENDBRANCH   7  10
BRANCH   8  18
HETATM   18  C   UNL     1     123.300 118.975 128.759  1.00  0.00     0.099 C 
HETATM   19  C   UNL     1     124.474 118.893 129.747  1.00  0.00     0.014 C 
ENDBRANCH   8  18
ENDBRANCH   3   7
BRANCH   6  20
HETATM   20  C   UNL     1     116.919 116.859 129.902  1.00  0.00     0.277 C 
BRANCH  20  21
HETATM   21  C   UNL     1     116.544 115.491 130.477  1.00  0.00     0.068 C 
BRANCH  21  22
HETATM   22  C   UNL     1     115.577 114.653 129.660  1.00  0.00    -0.057 A 
HETATM   23  C   UNL     1     115.805 114.294 128.322  1.00  0.00     0.007 A 
HETATM   24  C   UNL     1     114.876 113.518 127.615  1.00  0.00     0.001 A 
HETATM   25  C   UNL     1     113.701 113.086 128.231  1.00  0.00     0.000 A 
HETATM   26  C   UNL     1     113.459 113.436 129.565  1.00  0.00     0.001 A 
HETATM   27  C   UNL     1     114.387 114.208 130.266  1.00  0.00     0.007 A 
ENDBRANCH  21  22
ENDBRANCH  20  21
ENDBRANCH   6  20
TORSDOF 7
ENDMDL
MODEL 2
REMARK minimizedAffinity -8.21838284
REMARK minimizedRMSD -1
REMARK  7 active torsions:
REMARK  status: ('A' for Active; 'I' for Inactive)
REMARK    1  A    between atoms: C_4  and  C_7 
REMARK    2  A    between atoms: C_7  and  C_8 
REMARK    3  A    between atoms: C_8  and  N_14 
REMARK    4  A    between atoms: C_11  and  N_15 
REMARK    5  A    between atoms: N_15  and  C_16 
REMARK       I    between atoms: N_15  and  C_24 
REMARK    6  A    between atoms: C_19  and  O_26 
REMARK    7  A    between atoms: C_23  and  C_24 
ROOT
HETATM    1  C   UNL     1     116.988 117.072 132.811  1.00  0.00     0.274 C 
HETATM    2  C   UNL     1     117.373 117.017 134.291  1.00  0.00     0.056 C 
HETATM    3  C   UNL     1     117.885 115.619 134.676  1.00  0.00     0.096 C 
HETATM    4  C   UNL     1     116.846 114.566 134.259  1.00  0.00     0.056 C 
HETATM    5  C   UNL     1     116.481 114.719 132.779  1.00  0.00     0.274 C 
HETATM    6  N   UNL     1     115.991 116.060 132.484  1.00  0.00     0.088 N 
ENDROOT
BRANCH   3   7
HETATM    7  N   UNL     1     118.292 115.512 136.089  1.00  0.00    -0.313 N 
HETATM    8  C   UNL     1     119.577 115.212 136.523  1.00  0.00     0.224 C 
HETATM    9  O   UNL     1     119.838 115.135 137.712  1.00  0.00    -0.273 OA
BRANCH   7  10
HETATM   10  C   UNL     1     117.318 115.779 137.115  1.00  0.00     0.037 A 
HETATM   11  C   UNL     1     116.581 114.738 137.688  1.00  0.00     0.032 A 
HETATM   12  C   UNL     1     115.638 114.992 138.687  1.00  0.00     0.039 A 
HETATM   13  C   UNL     1     115.425 116.304 139.135  1.00  0.00     0.065 A 
HETATM   14  C   UNL     1     116.170 117.353 138.575  1.00  0.00     0.039 A 
HETATM   15  C   UNL     1     117.108 117.086 137.581  1.00  0.00     0.032 A 
BRANCH  13  16
HETATM   16  O   UNL     1     114.522 116.612 140.103  1.00  0.00    -0.361 OA
HETATM   17  H   UNL     1     114.096 115.803 140.416  1.00  0.00     0.217 HD
ENDBRANCH  13  16
ENDBRANCH   7  10
BRANCH   8  18
HETATM   18  C   UNL     1     120.670 114.933 135.486  1.00  0.00     0.099 C 
HETATM   19  C   UNL     1     121.826 114.099 136.057  1.00  0.00     0.014 C 
ENDBRANCH   8  18
ENDBRANCH   3   7
BRANCH   6  20
HETATM   20  C   UNL     1     115.438 116.205 131.143  1.00  0.00     0.277 C 
BRANCH  20  21
HETATM   21  C   UNL     1     116.226 115.425 130.088  1.00  0.00     0.068 C 
BRANCH  21  22
HETATM   22  C   UNL     1     115.427 114.489 129.198  1.00  0.00    -0.057 A 
HETATM   23  C   UNL     1     115.796 114.171 127.882  1.00  0.00     0.007 A 
HETATM   24  C   UNL     1     115.019 113.300 127.105  1.00  0.00     0.001 A 
HETATM   25  C   UNL     1     113.859 112.731 127.629  1.00  0.00     0.000 A 
HETATM   26  C   UNL     1     113.477 113.038 128.941  1.00  0.00     0.001 A 
HETATM   27  C   UNL     1     114.253 113.905 129.711  1.00  0.00     0.007 A 
ENDBRANCH  21  22
ENDBRANCH  20  21
ENDBRANCH   6  20
TORSDOF 7
ENDMDL
MODEL 3
REMARK minimizedAffinity -8.21070099
REMARK minimizedRMSD -1
REMARK  7 active torsions:
REMARK  status: ('A' for Active; 'I' for Inactive)
REMARK    1  A    between atoms: C_4  and  C_7 
REMARK    2  A    between atoms: C_7  and  C_8 
REMARK    3  A    between atoms: C_8  and  N_14 
REMARK    4  A    between atoms: C_11  and  N_15 
REMARK    5  A    between atoms: N_15  and  C_16 
REMARK       I    between atoms: N_15  and  C_24 
REMARK    6  A    between atoms: C_19  and  O_26 
REMARK    7  A    between atoms: C_23  and  C_24 
ROOT
HETATM    1  C   UNL     1     116.920 117.031 132.949  1.00  0.00     0.274 C 
HETATM    2  C   UNL     1     117.299 116.892 134.426  1.00  0.00     0.056 C 
HETATM    3  C   UNL     1     117.865 115.493 134.720  1.00  0.00     0.096 C 
HETATM    4  C   UNL     1     116.872 114.430 134.224  1.00  0.00     0.056 C 
HETATM    5  C   UNL     1     116.511 114.667 132.755  1.00  0.00     0.274 C 
HETATM    6  N   UNL     1     115.968 116.004 132.546  1.00  0.00     0.088 N 
ENDROOT
BRANCH   3   7
HETATM    7  N   UNL     1     118.268 115.308 136.126  1.00  0.00    -0.313 N 
HETATM    8  C   UNL     1     119.514 114.853 136.541  1.00  0.00     0.224 C 
HETATM    9  O   UNL     1     119.773 114.720 137.725  1.00  0.00    -0.273 OA
BRANCH   7  10
HETATM   10  C   UNL     1     117.338 115.660 137.168  1.00  0.00     0.037 A 
HETATM   11  C   UNL     1     117.269 116.971 137.650  1.00  0.00     0.032 A 
HETATM   12  C   UNL     1     116.365 117.317 138.657  1.00  0.00     0.039 A 
HETATM   13  C   UNL     1     115.504 116.348 139.194  1.00  0.00     0.065 A 
HETATM   14  C   UNL     1     115.558 115.034 138.706  1.00  0.00     0.039 A 
HETATM   15  C   UNL     1     116.463 114.701 137.701  1.00  0.00     0.032 A 
BRANCH  13  16
HETATM   16  O   UNL     1     114.606 116.626 140.174  1.00  0.00    -0.361 OA
HETATM   17  H   UNL     1     114.657 117.564 140.403  1.00  0.00     0.217 HD
ENDBRANCH  13  16
ENDBRANCH   7  10
BRANCH   8  18
HETATM   18  C   UNL     1     120.560 114.477 135.487  1.00  0.00     0.099 C 
HETATM   19  C   UNL     1     121.930 114.159 136.103  1.00  0.00     0.014 C 
ENDBRANCH   8  18
ENDBRANCH   3   7
BRANCH   6  20
HETATM   20  C   UNL     1     115.417 116.216 131.213  1.00  0.00     0.277 C 
BRANCH  20  21
HETATM   21  C   UNL     1     116.178 115.451 130.127  1.00  0.00     0.068 C 
BRANCH  21  22
HETATM   22  C   UNL     1     115.361 114.503 129.266  1.00  0.00    -0.057 A 
HETATM   23  C   UNL     1     114.192 113.867 129.712  1.00  0.00     0.007 A 
HETATM   24  C   UNL     1     113.477 113.001 128.873  1.00  0.00     0.001 A 
HETATM   25  C   UNL     1     113.917 112.754 127.573  1.00  0.00     0.000 A 
HETATM   26  C   UNL     1     115.082 113.381 127.113  1.00  0.00     0.001 A 
HETATM   27  C   UNL     1     115.790 114.243 127.951  1.00  0.00     0.007 A 
ENDBRANCH  21  22
ENDBRANCH  20  21
ENDBRANCH   6  20
TORSDOF 7
ENDMDL
MODEL 4
REMARK minimizedAffinity -8.18379402
REMARK minimizedRMSD -1
REMARK  7 active torsions:
REMARK  status: ('A' for Active; 'I' for Inactive)
REMARK    1  A    between atoms: C_4  and  C_7 
REMARK    2  A    between atoms: C_7  and  C_8 
REMARK    3  A    between atoms: C_8  and  N_14 
REMARK    4  A    between atoms: C_11  and  N_15 
REMARK    5  A    between atoms: N_15  and  C_16 
REMARK       I    between atoms: N_15  and  C_24 
REMARK    6  A    between atoms: C_19  and  O_26 
REMARK    7  A    between atoms: C_23  and  C_24 
ROOT
HETATM    1  C   UNL     1     121.327 115.828 125.404  1.00  0.00     0.274 C 
HETATM    2  C   UNL     1     121.437 114.601 124.497  1.00  0.00     0.056 C 
HETATM    3  C   UNL     1     121.814 113.348 125.305  1.00  0.00     0.096 C 
HETATM    4  C   UNL     1     123.080 113.637 126.126  1.00  0.00     0.056 C 
HETATM    5  C   UNL     1     122.904 114.904 126.970  1.00  0.00     0.274 C 
HETATM    6  N   UNL     1     122.563 116.055 126.143  1.00  0.00     0.088 N 
ENDROOT
BRANCH   3   7
HETATM    7  N   UNL     1     121.914 112.128 124.485  1.00  0.00    -0.313 N 
HETATM    8  C   UNL     1     121.217 110.951 124.726  1.00  0.00     0.224 C 
HETATM    9  O   UNL     1     121.355 109.978 124.004  1.00  0.00    -0.273 OA
BRANCH   7  10
HETATM   10  C   UNL     1     122.753 112.145 123.314  1.00  0.00     0.037 A 
HETATM   11  C   UNL     1     124.020 111.553 123.335  1.00  0.00     0.032 A 
HETATM   12  C   UNL     1     124.834 111.563 122.200  1.00  0.00     0.039 A 
HETATM   13  C   UNL     1     124.384 112.165 121.016  1.00  0.00     0.065 A 
HETATM   14  C   UNL     1     123.108 112.748 120.983  1.00  0.00     0.039 A 
HETATM   15  C   UNL     1     122.305 112.731 122.120  1.00  0.00     0.032 A 
BRANCH  13  16
HETATM   16  O   UNL     1     125.131 112.205 119.882  1.00  0.00    -0.361 OA
HETATM   17  H   UNL     1     125.972 111.753 120.033  1.00  0.00     0.217 HD
ENDBRANCH  13  16
ENDBRANCH   7  10
BRANCH   8  18
HETATM   18  C   UNL     1     120.292 110.867 125.944  1.00  0.00     0.099 C 
HETATM   19  C   UNL     1     119.538 109.531 126.022  1.00  0.00     0.014 C 
ENDBRANCH   8  18
ENDBRANCH   3   7
BRANCH   6  20
HETATM   20  C   UNL     1     122.584 117.324 126.860  1.00  0.00     0.277 C 
BRANCH  20  21
HETATM   21  C   UNL     1     123.874 117.535 127.656  1.00  0.00     0.068 C 
BRANCH  21  22
HETATM   22  C   UNL     1     123.811 118.536 128.797  1.00  0.00    -0.057 A 
HETATM   23  C   UNL     1     124.709 118.536 129.876  1.00  0.00     0.007 A 
HETATM   24  C   UNL     1     124.603 119.484 130.902  1.00  0.00     0.001 A 
HETATM   25  C   UNL     1     123.599 120.452 130.870  1.00  0.00     0.000 A 
HETATM   26  C   UNL     1     122.696 120.466 129.799  1.00  0.00     0.001 A 
HETATM   27  C   UNL     1     122.805 119.520 128.779  1.00  0.00     0.007 A 
ENDBRANCH  21  22
ENDBRANCH  20  21
ENDBRANCH   6  20
TORSDOF 7
ENDMDL
MODEL 5
REMARK minimizedAffinity -7.90227079
REMARK minimizedRMSD -1
REMARK  7 active torsions:
REMARK  status: ('A' for Active; 'I' for Inactive)
REMARK    1  A    between atoms: C_4  and  C_7 
REMARK    2  A    between atoms: C_7  and  C_8 
REMARK    3  A    between atoms: C_8  and  N_14 
REMARK    4  A    between atoms: C_11  and  N_15 
REMARK    5  A    between atoms: N_15  and  C_16 
REMARK       I    between atoms: N_15  and  C_24 
REMARK    6  A    between atoms: C_19  and  O_26 
REMARK    7  A    between atoms: C_23  and  C_24 
ROOT
HETATM    1  C   UNL     1     119.022 115.579 133.995  1.00  0.00     0.274 C 
HETATM    2  C   UNL     1     119.313 115.943 135.452  1.00  0.00     0.056 C 
HETATM    3  C   UNL     1     118.634 114.955 136.414  1.00  0.00     0.096 C 
HETATM    4  C   UNL     1     117.137 114.867 136.077  1.00  0.00     0.056 C 
HETATM    5  C   UNL     1     116.932 114.545 134.594  1.00  0.00     0.274 C 
HETATM    6  N   UNL     1     117.588 115.526 133.738  1.00  0.00     0.088 N 
ENDROOT
BRANCH   3   7
HETATM    7  N   UNL     1     118.898 115.244 137.835  1.00  0.00    -0.313 N 
HETATM    8  C   UNL     1     119.982 114.758 138.555  1.00  0.00     0.224 C 
HETATM    9  O   UNL     1     120.132 115.037 139.733  1.00  0.00    -0.273 OA
BRANCH   7  10
HETATM   10  C   UNL     1     118.008 116.129 138.541  1.00  0.00     0.037 A 
HETATM   11  C   UNL     1     116.953 115.621 139.306  1.00  0.00     0.032 A 
HETATM   12  C   UNL     1     116.091 116.476 139.996  1.00  0.00     0.039 A 
HETATM   13  C   UNL     1     116.280 117.865 139.935  1.00  0.00     0.065 A 
HETATM   14  C   UNL     1     117.344 118.382 139.181  1.00  0.00     0.039 A 
HETATM   15  C   UNL     1     118.198 117.519 138.499  1.00  0.00     0.032 A 
BRANCH  13  16
HETATM   16  O   UNL     1     115.474 118.744 140.585  1.00  0.00    -0.361 OA
HETATM   17  H   UNL     1     114.800 118.261 141.080  1.00  0.00     0.217 HD
ENDBRANCH  13  16
ENDBRANCH   7  10
BRANCH   8  18
HETATM   18  C   UNL     1     120.980 113.825 137.863  1.00  0.00     0.099 C 
HETATM   19  C   UNL     1     122.347 114.487 137.634  1.00  0.00     0.014 C 
ENDBRANCH   8  18
ENDBRANCH   3   7
BRANCH   6  20
HETATM   20  C   UNL     1     117.259 115.391 132.324  1.00  0.00     0.277 C 
BRANCH  20  21
HETATM   21  C   UNL     1     115.754 115.483 132.053  1.00  0.00     0.068 C 
BRANCH  21  22
HETATM   22  C   UNL     1     115.249 114.801 130.794  1.00  0.00    -0.057 A 
HETATM   23  C   UNL     1     114.045 114.082 130.734  1.00  0.00     0.007 A 
HETATM   24  C   UNL     1     113.627 113.473 129.543  1.00  0.00     0.001 A 
HETATM   25  C   UNL     1     114.404 113.570 128.389  1.00  0.00     0.000 A 
HETATM   26  C   UNL     1     115.608 114.284 128.432  1.00  0.00     0.001 A 
HETATM   27  C   UNL     1     116.020 114.890 129.619  1.00  0.00     0.007 A 
ENDBRANCH  21  22
ENDBRANCH  20  21
ENDBRANCH   6  20
TORSDOF 7
ENDMDL
MODEL 6
REMARK minimizedAffinity -7.81465197
REMARK minimizedRMSD -1
REMARK  7 active torsions:
REMARK  status: ('A' for Active; 'I' for Inactive)
REMARK    1  A    between atoms: C_4  and  C_7 
REMARK    2  A    between atoms: C_7  and  C_8 
REMARK    3  A    between atoms: C_8  and  N_14 
REMARK    4  A    between atoms: C_11  and  N_15 
REMARK    5  A    between atoms: N_15  and  C_16 
REMARK       I    between atoms: N_15  and  C_24 
REMARK    6  A    between atoms: C_19  and  O_26 
REMARK    7  A    between atoms: C_23  and  C_24 
ROOT
HETATM    1  C   UNL     1     116.850 114.232 134.066  1.00  0.00     0.274 C 
HETATM    2  C   UNL     1     117.499 114.087 135.445  1.00  0.00     0.056 C 
HETATM    3  C   UNL     1     117.286 115.353 136.291  1.00  0.00     0.096 C 
HETATM    4  C   UNL     1     117.765 116.579 135.498  1.00  0.00     0.056 C 
HETATM    5  C   UNL     1     117.105 116.625 134.117  1.00  0.00     0.274 C 
HETATM    6  N   UNL     1     117.356 115.403 133.362  1.00  0.00     0.088 N 
ENDROOT
BRANCH   3   7
HETATM    7  N   UNL     1     117.873 115.262 137.640  1.00  0.00    -0.313 N 
HETATM    8  C   UNL     1     117.146 115.081 138.810  1.00  0.00     0.224 C 
HETATM    9  O   UNL     1     117.703 115.020 139.894  1.00  0.00    -0.273 OA
BRANCH   7  10
HETATM   10  C   UNL     1     119.305 115.315 137.780  1.00  0.00     0.037 A 
HETATM   11  C   UNL     1     120.085 114.171 137.578  1.00  0.00     0.032 A 
HETATM   12  C   UNL     1     121.475 114.220 137.708  1.00  0.00     0.039 A 
HETATM   13  C   UNL     1     122.109 115.427 138.038  1.00  0.00     0.065 A 
HETATM   14  C   UNL     1     121.335 116.581 138.229  1.00  0.00     0.039 A 
HETATM   15  C   UNL     1     119.950 116.521 138.095  1.00  0.00     0.032 A 
BRANCH  13  16
HETATM   16  O   UNL     1     123.456 115.534 138.178  1.00  0.00    -0.361 OA
HETATM   17  H   UNL     1     123.869 114.678 138.000  1.00  0.00     0.217 HD
ENDBRANCH  13  16
ENDBRANCH   7  10
BRANCH   8  18
HETATM   18  C   UNL     1     115.619 114.998 138.735  1.00  0.00     0.099 C 
HETATM   19  C   UNL     1     114.936 116.321 139.114  1.00  0.00     0.014 C 
ENDBRANCH   8  18
ENDBRANCH   3   7
BRANCH   6  20
HETATM   20  C   UNL     1     116.929 115.471 131.970  1.00  0.00     0.277 C 
BRANCH  20  21
HETATM   21  C   UNL     1     115.460 115.084 131.780  1.00  0.00     0.068 C 
BRANCH  21  22
HETATM   22  C   UNL     1     115.074 114.535 130.417  1.00  0.00    -0.057 A 
HETATM   23  C   UNL     1     115.907 114.609 129.289  1.00  0.00     0.007 A 
HETATM   24  C   UNL     1     115.498 114.085 128.055  1.00  0.00     0.001 A 
HETATM   25  C   UNL     1     114.249 113.478 127.924  1.00  0.00     0.000 A 
HETATM   26  C   UNL     1     113.406 113.397 129.040  1.00  0.00     0.001 A 
HETATM   27  C   UNL     1     113.817 113.919 130.267  1.00  0.00     0.007 A 
ENDBRANCH  21  22
ENDBRANCH  20  21
ENDBRANCH   6  20
TORSDOF 7
ENDMDL
MODEL 7
REMARK minimizedAffinity -7.78276634
REMARK minimizedRMSD -1
REMARK  7 active torsions:
REMARK  status: ('A' for Active; 'I' for Inactive)
REMARK    1  A    between atoms: C_4  and  C_7 
REMARK    2  A    between atoms: C_7  and  C_8 
REMARK    3  A    between atoms: C_8  and  N_14 
REMARK    4  A    between atoms: C_11  and  N_15 
REMARK    5  A    between atoms: N_15  and  C_16 
REMARK       I    between atoms: N_15  and  C_24 
REMARK    6  A    between atoms: C_19  and  O_26 
REMARK    7  A    between atoms: C_23  and  C_24 
ROOT
HETATM    1  C   UNL     1     115.640 114.086 124.394  1.00  0.00     0.274 C 
HETATM    2  C   UNL     1     115.017 114.282 123.010  1.00  0.00     0.056 C 
HETATM    3  C   UNL     1     113.845 115.276 123.068  1.00  0.00     0.096 C 
HETATM    4  C   UNL     1     112.848 114.821 124.145  1.00  0.00     0.056 C 
HETATM    5  C   UNL     1     113.557 114.603 125.485  1.00  0.00     0.274 C 
HETATM    6  N   UNL     1     114.647 113.642 125.364  1.00  0.00     0.088 N 
ENDROOT
BRANCH   3   7
HETATM    7  N   UNL     1     113.219 115.521 121.756  1.00  0.00    -0.313 N 
HETATM    8  C   UNL     1     113.057 116.773 121.177  1.00  0.00     0.224 C 
HETATM    9  O   UNL     1     112.523 116.898 120.087  1.00  0.00    -0.273 OA
BRANCH   7  10
HETATM   10  C   UNL     1     112.775 114.394 120.977  1.00  0.00     0.037 A 
HETATM   11  C   UNL     1     113.625 113.794 120.042  1.00  0.00     0.032 A 
HETATM   12  C   UNL     1     113.200 112.698 119.287  1.00  0.00     0.039 A 
HETATM   13  C   UNL     1     111.909 112.179 119.465  1.00  0.00     0.065 A 
HETATM   14  C   UNL     1     111.055 112.768 120.410  1.00  0.00     0.039 A 
HETATM   15  C   UNL     1     111.490 113.859 121.158  1.00  0.00     0.032 A 
BRANCH  13  16
HETATM   16  O   UNL     1     111.440 111.117 118.760  1.00  0.00    -0.361 OA
HETATM   17  H   UNL     1     112.130 110.796 118.164  1.00  0.00     0.217 HD
ENDBRANCH  13  16
ENDBRANCH   7  10
BRANCH   8  18
HETATM   18  C   UNL     1     113.522 118.016 121.941  1.00  0.00     0.099 C 
HETATM   19  C   UNL     1     114.786 118.644 121.335  1.00  0.00     0.014 C 
ENDBRANCH   8  18
ENDBRANCH   3   7
BRANCH   6  20
HETATM   20  C   UNL     1     115.225 113.240 126.641  1.00  0.00     0.277 C 
BRANCH  20  21
HETATM   21  C   UNL     1     114.168 112.817 127.664  1.00  0.00     0.068 C 
BRANCH  21  22
HETATM   22  C   UNL     1     113.972 113.736 128.858  1.00  0.00    -0.057 A 
HETATM   23  C   UNL     1     112.711 114.139 129.324  1.00  0.00     0.007 A 
HETATM   24  C   UNL     1     112.589 114.989 130.431  1.00  0.00     0.001 A 
HETATM   25  C   UNL     1     113.725 115.454 131.094  1.00  0.00     0.000 A 
HETATM   26  C   UNL     1     114.991 115.061 130.640  1.00  0.00     0.001 A 
HETATM   27  C   UNL     1     115.108 114.213 129.538  1.00  0.00     0.007 A 
ENDBRANCH  21  22
ENDBRANCH  20  21
ENDBRANCH   6  20
TORSDOF 7
ENDMDL
MODEL 8
REMARK minimizedAffinity -7.76265049
REMARK minimizedRMSD -1
REMARK  7 active torsions:
REMARK  status: ('A' for Active; 'I' for Inactive)
REMARK    1  A    between atoms: C_4  and  C_7 
REMARK    2  A    between atoms: C_7  and  C_8 
REMARK    3  A    between atoms: C_8  and  N_14 
REMARK    4  A    between atoms: C_11  and  N_15 
REMARK    5  A    between atoms: N_15  and  C_16 
REMARK       I    between atoms: N_15  and  C_24 
REMARK    6  A    between atoms: C_19  and  O_26 
REMARK    7  A    between atoms: C_23  and  C_24 
ROOT
HETATM    1  C   UNL     1     118.747 118.563 127.800  1.00  0.00     0.274 C 
HETATM    2  C   UNL     1     119.928 119.168 128.564  1.00  0.00     0.056 C 
HETATM    3  C   UNL     1     121.171 118.270 128.457  1.00  0.00     0.096 C 
HETATM    4  C   UNL     1     120.806 116.843 128.895  1.00  0.00     0.056 C 
HETATM    5  C   UNL     1     119.590 116.331 128.117  1.00  0.00     0.274 C 
HETATM    6  N   UNL     1     118.443 117.218 128.271  1.00  0.00     0.088 N 
ENDROOT
BRANCH   3   7
HETATM    7  N   UNL     1     122.349 118.814 129.158  1.00  0.00    -0.313 N 
HETATM    8  C   UNL     1     123.668 118.578 128.793  1.00  0.00     0.224 C 
HETATM    9  O   UNL     1     124.592 119.060 129.426  1.00  0.00    -0.273 OA
BRANCH   7  10
HETATM   10  C   UNL     1     122.145 119.696 130.278  1.00  0.00     0.037 A 
HETATM   11  C   UNL     1     122.195 121.084 130.113  1.00  0.00     0.032 A 
HETATM   12  C   UNL     1     121.993 121.942 131.196  1.00  0.00     0.039 A 
HETATM   13  C   UNL     1     121.728 121.418 132.470  1.00  0.00     0.065 A 
HETATM   14  C   UNL     1     121.662 120.027 132.641  1.00  0.00     0.039 A 
HETATM   15  C   UNL     1     121.864 119.181 131.553  1.00  0.00     0.032 A 
BRANCH  13  16
HETATM   16  O   UNL     1     121.524 122.203 133.559  1.00  0.00    -0.361 OA
HETATM   17  H   UNL     1     121.575 123.133 133.302  1.00  0.00     0.217 HD
ENDBRANCH  13  16
ENDBRANCH   7  10
BRANCH   8  18
HETATM   18  C   UNL     1     123.960 117.664 127.599  1.00  0.00     0.099 C 
HETATM   19  C   UNL     1     124.066 118.436 126.275  1.00  0.00     0.014 C 
ENDBRANCH   8  18
ENDBRANCH   3   7
BRANCH   6  20
HETATM   20  C   UNL     1     117.203 116.680 127.725  1.00  0.00     0.277 C 
BRANCH  20  21
HETATM   21  C   UNL     1     117.047 115.177 127.974  1.00  0.00     0.068 C 
BRANCH  21  22
HETATM   22  C   UNL     1     115.987 114.762 128.979  1.00  0.00    -0.057 A 
HETATM   23  C   UNL     1     116.045 115.087 130.343  1.00  0.00     0.007 A 
HETATM   24  C   UNL     1     115.037 114.676 131.226  1.00  0.00     0.001 A 
HETATM   25  C   UNL     1     113.952 113.933 130.763  1.00  0.00     0.000 A 
HETATM   26  C   UNL     1     113.878 113.601 129.404  1.00  0.00     0.001 A 
HETATM   27  C   UNL     1     114.884 114.012 128.528  1.00  0.00     0.007 A 
ENDBRANCH  21  22
ENDBRANCH  20  21
ENDBRANCH   6  20
TORSDOF 7
ENDMDL
MODEL 9
REMARK minimizedAffinity -7.715343
REMARK minimizedRMSD -1
REMARK  7 active torsions:
REMARK  status: ('A' for Active; 'I' for Inactive)
REMARK    1  A    between atoms: C_4  and  C_7 
REMARK    2  A    between atoms: C_7  and  C_8 
REMARK    3  A    between atoms: C_8  and  N_14 
REMARK    4  A    between atoms: C_11  and  N_15 
REMARK    5  A    between atoms: N_15  and  C_16 
REMARK       I    between atoms: N_15  and  C_24 
REMARK    6  A    between atoms: C_19  and  O_26 
REMARK    7  A    between atoms: C_23  and  C_24 
ROOT
HETATM    1  C   UNL     1     117.997 115.575 127.874  1.00  0.00     0.274 C 
HETATM    2  C   UNL     1     117.022 115.148 128.974  1.00  0.00     0.056 C 
HETATM    3  C   UNL     1     116.171 116.337 129.449  1.00  0.00     0.096 C 
HETATM    4  C   UNL     1     117.097 117.497 129.847  1.00  0.00     0.056 C 
HETATM    5  C   UNL     1     118.069 117.831 128.711  1.00  0.00     0.274 C 
HETATM    6  N   UNL     1     118.854 116.666 128.318  1.00  0.00     0.088 N 
ENDROOT
BRANCH   3   7
HETATM    7  N   UNL     1     115.197 115.980 130.495  1.00  0.00    -0.313 N 
HETATM    8  C   UNL     1     113.858 115.687 130.267  1.00  0.00     0.224 C 
HETATM    9  O   UNL     1     113.109 115.404 131.187  1.00  0.00    -0.273 OA
BRANCH   7  10
HETATM   10  C   UNL     1     115.649 115.875 131.859  1.00  0.00     0.037 A 
HETATM   11  C   UNL     1     115.425 116.916 132.767  1.00  0.00     0.032 A 
HETATM   12  C   UNL     1     115.858 116.815 134.092  1.00  0.00     0.039 A 
HETATM   13  C   UNL     1     116.520 115.659 134.530  1.00  0.00     0.065 A 
HETATM   14  C   UNL     1     116.736 114.606 133.629  1.00  0.00     0.039 A 
HETATM   15  C   UNL     1     116.298 114.717 132.311  1.00  0.00     0.032 A 
BRANCH  13  16
HETATM   16  O   UNL     1     116.963 115.506 135.805  1.00  0.00    -0.361 OA
HETATM   17  H   UNL     1     116.734 116.289 136.324  1.00  0.00     0.217 HD
ENDBRANCH  13  16
ENDBRANCH   7  10
BRANCH   8  18
HETATM   18  C   UNL     1     113.312 115.760 128.838  1.00  0.00     0.099 C 
HETATM   19  C   UNL     1     113.402 114.416 128.100  1.00  0.00     0.014 C 
ENDBRANCH   8  18
ENDBRANCH   3   7
BRANCH   6  20
HETATM   20  C   UNL     1     119.935 116.969 127.388  1.00  0.00     0.277 C 
BRANCH  20  21
HETATM   21  C   UNL     1     121.320 116.669 127.969  1.00  0.00     0.068 C 
BRANCH  21  22
HETATM   22  C   UNL     1     121.898 115.297 127.671  1.00  0.00    -0.057 A 
HETATM   23  C   UNL     1     121.261 114.097 128.022  1.00  0.00     0.007 A 
HETATM   24  C   UNL     1     121.842 112.857 127.722  1.00  0.00     0.001 A 
HETATM   25  C   UNL     1     123.072 112.793 127.066  1.00  0.00     0.000 A 
HETATM   26  C   UNL     1     123.721 113.982 126.710  1.00  0.00     0.001 A 
HETATM   27  C   UNL     1     123.138 115.214 127.009  1.00  0.00     0.007 A 
ENDBRANCH  21  22
ENDBRANCH  20  21
ENDBRANCH   6  20
TORSDOF 7
ENDMDL
